 Entering Gaussian System, Link 0=g16
 Copyright (c) 1988-2021, Gaussian, Inc.  All Rights Reserved.
  
 This is part of the Gaussian(R) 16 program.  It is based on
 the Gaussian(R) 09 system (copyright 2009, Gaussian, Inc.),
 the Gaussian(R) 03 system (copyright 2003, Gaussian, Inc.),
 the Gaussian(R) 98 system (copyright 1998, Gaussian, Inc.),
 the Gaussian(R) 94 system (copyright 1995, Gaussian, Inc.),
 the Gaussian 92(TM) system (copyright 1992, Gaussian, Inc.),
 the Gaussian 90(TM) system (copyright 1990, Gaussian, Inc.),
 the Gaussian 88(TM) system (copyright 1988, Gaussian, Inc.),
 the Gaussian 86(TM) system (copyright 1986, Carnegie Mellon
 University), and the Gaussian 82(TM) system (copyright 1983,
 Carnegie Mellon University). Gaussian is a federally registered
 trademark of Gaussian, Inc.
                          Input orientation:                          
 ---------------------------------------------------------------------
 Center     Atomic      Atomic             Coordinates (Angstroms)
 Number     Number       Type             X           Y           Z
 ---------------------------------------------------------------------
      1          8           0        0.000000    0.000000    0.000000
      2          1           0        0.000000    0.000000    1.000000
      3          1           0        0.970296    0.000000   -0.241922
 ---------------------------------------------------------------------
 Stoichiometry    H2O
 Framework group  C2V[C2(O),SGV(H2)]
                         Standard orientation:                         
 ---------------------------------------------------------------------
 Center     Atomic      Atomic             Coordinates (Angstroms)
 Number     Number       Type             X           Y           Z
 ---------------------------------------------------------------------
      1          8           0        0.000000    0.000000    0.123132
      2          1           0       -0.000000    0.788011   -0.492529
      3          1           0       -0.000000   -0.788011   -0.492529
 ---------------------------------------------------------------------
 Standard basis: def2TZVP (5D, 7F)
    43 basis functions,    67 primitive gaussians,    48 cartesian basis functions
     5 alpha electrons        5 beta electrons
 Requested convergence on RMS density matrix=1.00D-08 within 128 cycles.
 Requested convergence on MAX density matrix=1.00D-06.
 Requested convergence on             energy=1.00D-06.
 SCF Done:  E(RB3LYP) =  -76.4612338651     A.U. after    9 cycles
            NFock=  9  Conv=0.77D-08     -V/T= 2.0055
 Mulliken charges:
     1  O   -0.639007
     2  H    0.319503
     3  H    0.319503
 Sum of Mulliken charges =  -0.00000
 Dipole moment (field-independent basis, Debye):
    X=             -0.0000    Y=             -0.0000    Z=             -2.0988  Tot=              2.0988
 Quadrupole moment (field-independent basis, Debye-Ang):
   XX=             -7.6663   YY=             -4.3362   ZZ=             -6.3150
   XY=              0.0000   XZ=              0.0000   YZ=              0.0000
 Traceless Quadrupole moment (field-independent basis, Debye-Ang):
   XX=             -1.5604   YY=              1.7696   ZZ=             -0.2092
   XY=              0.0000   XZ=              0.0000   YZ=              0.0000
 Octapole moment (field-independent basis, Debye-Ang**2):
  XXX=              0.0000  YYY=             -0.0000  ZZZ=             -1.3157  XYY=             -0.0000
  XXY=             -0.0000  XXZ=             -0.3424  XZZ=             -0.0000  YZZ=             -0.0000
  YYZ=             -1.4140  XYZ=             -0.0000
 Hexadecapole moment (field-independent basis, Debye-Ang**3):
 XXXX=             -6.6766 YYYY=             -6.7236 ZZZZ=             -7.5731 XXXY=             -0.0000
 XXXZ=             -0.0000 YYYX=             -0.0000 YYYZ=              0.0000 ZZZX=             -0.0000
 ZZZY=             -0.0000 XXYY=             -2.5513 XXZZ=             -2.4371 YYZZ=             -1.9980
 XXYZ=             -0.0000 YYXZ=              0.0000 ZZXY=              0.0000
 Step number   1 out of a maximum of   20
     Eigenvalues ---    0.16000   0.47688   0.47688
 Maximum Force            0.031884     0.000450     NO 
 RMS     Force            0.026037     0.000300     NO 
 Maximum Displacement     0.050989     0.001800     NO 
 RMS     Displacement     0.048222     0.001200     NO 
                          Input orientation:                          
 ---------------------------------------------------------------------
 Center     Atomic      Atomic             Coordinates (Angstroms)
 Number     Number       Type             X           Y           Z
 ---------------------------------------------------------------------
      1          8           0        0.010355   -0.000000    0.008090
      2          1           0        0.012743   -0.000000    0.973018
      3          1           0        0.947198    0.000000   -0.223030
 ---------------------------------------------------------------------
 Stoichiometry    H2O
 Framework group  C2V[C2(O),SGV(H2)]
                         Standard orientation:                         
 ---------------------------------------------------------------------
 Center     Atomic      Atomic             Coordinates (Angstroms)
 Number     Number       Type             X           Y           Z
 ---------------------------------------------------------------------
      1          8           0       -0.000000    0.000000    0.119190
      2          1           0       -0.000000    0.758903   -0.476760
      3          1           0       -0.000000   -0.758903   -0.476760
 ---------------------------------------------------------------------
 Standard basis: def2TZVP (5D, 7F)
    43 basis functions,    67 primitive gaussians,    48 cartesian basis functions
     5 alpha electrons        5 beta electrons
 Requested convergence on RMS density matrix=1.00D-08 within 128 cycles.
 Requested convergence on MAX density matrix=1.00D-06.
 Requested convergence on             energy=1.00D-06.
 SCF Done:  E(RB3LYP) =  -76.4635112935     A.U. after    9 cycles
            NFock=  9  Conv=0.19D-08     -V/T= 2.0040
 Step number   2 out of a maximum of   20
     Eigenvalues ---    0.15950   0.46454   0.47688
 Maximum Force            0.003959     0.000450     NO 
 RMS     Force            0.002536     0.000300     NO 
 Maximum Displacement     0.012854     0.001800     NO 
 RMS     Displacement     0.013280     0.001200     NO 
                          Input orientation:                          
 ---------------------------------------------------------------------
 Center     Atomic      Atomic             Coordinates (Angstroms)
 Number     Number       Type             X           Y           Z
 ---------------------------------------------------------------------
      1          8           0        0.016193    0.000000    0.012651
      2          1           0        0.006291   -0.000000    0.975259
      3          1           0        0.947812    0.000000   -0.229832
 ---------------------------------------------------------------------
 Stoichiometry    H2O
 Framework group  C2V[C2(O),SGV(H2)]
                         Standard orientation:                         
 ---------------------------------------------------------------------
 Center     Atomic      Atomic             Coordinates (Angstroms)
 Number     Number       Type             X           Y           Z
 ---------------------------------------------------------------------
      1          8           0       -0.000000   -0.000000    0.116968
      2          1           0       -0.000000    0.764641   -0.467871
      3          1           0       -0.000000   -0.764641   -0.467871
 ---------------------------------------------------------------------
 Standard basis: def2TZVP (5D, 7F)
    43 basis functions,    67 primitive gaussians,    48 cartesian basis functions
     5 alpha electrons        5 beta electrons
 Requested convergence on RMS density matrix=1.00D-08 within 128 cycles.
 Requested convergence on MAX density matrix=1.00D-06.
 Requested convergence on             energy=1.00D-06.
 SCF Done:  E(RB3LYP) =  -76.4635693333     A.U. after    6 cycles
            NFock=  6  Conv=0.95D-08     -V/T= 2.0039
 Step number   3 out of a maximum of   20
     Eigenvalues ---    0.15253   0.47688   0.47817
 Maximum Force            0.000180     0.000450     YES
 RMS     Force            0.000128     0.000300     YES
 Maximum Displacement     0.000724     0.001800     YES
 RMS     Displacement     0.000687     0.001200     YES
 Optimization completed.
    -- Stationary point found.
                          Input orientation:                          
 ---------------------------------------------------------------------
 Center     Atomic      Atomic             Coordinates (Angstroms)
 Number     Number       Type             X           Y           Z
 ---------------------------------------------------------------------
      1          8           0        0.016193    0.000000    0.012651
      2          1           0        0.006291   -0.000000    0.975259
      3          1           0        0.947812    0.000000   -0.229832
 ---------------------------------------------------------------------
 Stoichiometry    H2O
 Framework group  C2V[C2(O),SGV(H2)]
                         Standard orientation:                         
 ---------------------------------------------------------------------
 Center     Atomic      Atomic             Coordinates (Angstroms)
 Number     Number       Type             X           Y           Z
 ---------------------------------------------------------------------
      1          8           0       -0.000000    0.000000    0.116968
      2          1           0        0.000000    0.764641   -0.467871
      3          1           0       -0.000000   -0.764641   -0.467871
 ---------------------------------------------------------------------
 Mulliken charges:
     1  O   -0.631667
     2  H    0.315833
     3  H    0.315833
 Sum of Mulliken charges =  -0.00000
 Dipole moment (field-independent basis, Debye):
    X=             -0.0000    Y=             -0.0000    Z=             -2.0646  Tot=              2.0646
 Quadrupole moment (field-independent basis, Debye-Ang):
   XX=             -7.5854   YY=             -4.3494   ZZ=             -6.3339
   XY=              0.0000   XZ=              0.0000   YZ=              0.0000
 Traceless Quadrupole moment (field-independent basis, Debye-Ang):
   XX=             -1.4958   YY=              1.7402   ZZ=             -0.2443
   XY=              0.0000   XZ=              0.0000   YZ=              0.0000
 Octapole moment (field-independent basis, Debye-Ang**2):
  XXX=              0.0000  YYY=             -0.0000  ZZZ=             -1.3432  XYY=             -0.0000
  XXY=              0.0000  XXZ=             -0.3663  XZZ=              0.0000  YZZ=              0.0000
  YYZ=             -1.3283  XYZ=             -0.0000
 Hexadecapole moment (field-independent basis, Debye-Ang**3):
 XXXX=             -6.5655 YYYY=             -6.3529 ZZZZ=             -7.2858 XXXY=             -0.0000
 XXXZ=             -0.0000 YYYX=             -0.0000 YYYZ=              0.0000 ZZZX=             -0.0000
 ZZZY=              0.0000 XXYY=             -2.4414 XXZZ=             -2.3607 YYZZ=             -1.9501
 XXYZ=             -0.0000 YYXZ=              0.0000 ZZXY=              0.0000
 Job cpu time:       0 days  0 hours  0 minutes  4.2 seconds.
 Normal termination of Gaussian 16 at Wed May 14 19:15:21 2025.
