 Entering Gaussian System, Link 0=g16
 Copyright (c) 1988-2019, Gaussian, Inc.  All Rights Reserved.
  
 This is part of the Gaussian(R) 16 program.  It is based on
 the Gaussian(R) 09 system (copyright 2009, Gaussian, Inc.),
 the Gaussian(R) 03 system (copyright 2003, Gaussian, Inc.),
 the Gaussian(R) 98 system (copyright 1998, Gaussian, Inc.),
 the Gaussian(R) 94 system (copyright 1995, Gaussian, Inc.),
 the Gaussian 92(TM) system (copyright 1992, Gaussian, Inc.),
 the Gaussian 90(TM) system (copyright 1990, Gaussian, Inc.),
 the Gaussian 88(TM) system (copyright 1988, Gaussian, Inc.),
 the Gaussian 86(TM) system (copyright 1986, Carnegie Mellon
 University), and the Gaussian 82(TM) system (copyright 1983,
 Carnegie Mellon University). Gaussian is a federally registered
 trademark of Gaussian, Inc.
 Cite this work as:
 Gaussian 16, Revision C.01,
 M. J. Frisch, G. W. Trucks, H. B. Schlegel, G. E. Scuseria, 
 M. A. Robb, J. R. Cheeseman, G. Scalmani, V. Barone, 
 G. A. Petersson, H. Nakatsuji, X. Li, M. Caricato, A. V. Marenich, 
 J. Bloino, B. G. Janesko, R. Gomperts, B. Mennucci, H. P. Hratchian, 
 J. V. Ortiz, A. F. Izmaylov, J. L. Sonnenberg, D. Williams-Young, 
 F. Ding, F. Lipparini, F. Egidi, J. Goings, B. Peng, A. Petrone, 
 T. Henderson, D. Ranasinghe, V. G. Zakrzewski, J. Gao, N. Rega, 
 G. Zheng, W. Liang, M. Hada, M. Ehara, K. Toyota, R. Fukuda, 
 J. Hasegawa, M. Ishida, T. Nakajima, Y. Honda, O. Kitao, H. Nakai, 
 T. Vreven, K. Throssell, J. A. Montgomery, Jr., J. E. Peralta, 
 F. Ogliaro, M. J. Bearpark, J. J. Heyd, E. N. Brothers, K. N. Kudin, 
 V. N. Staroverov, T. A. Keith, R. Kobayashi, J. Normand, 
 K. Raghavachari, A. P. Rendell, J. C. Burant, S. S. Iyengar, 
 J. Tomasi, M. Cossi, J. M. Millam, M. Klene, C. Adamo, R. Cammi, 
 J. W. Ochterski, R. L. Martin, K. Morokuma, O. Farkas, 
 J. B. Foresman, and D. J. Fox, Gaussian, Inc., Wallingford CT, 2019.
 
 ******************************************
 Gaussian 16:  EM64L-G16RevC.01  3-Jul-2019
                15-May-2025 
 ******************************************
 ----------------------------------------------------------------------
 #P HF/6-31G(d) SCF(Conver=8,XQC,MaxConventionalCycles=64,MaxCycle=128)
  NoSymm Test Pop=chelpg IOp(6/33=2) GFinput GFprint
 ----------------------------------------------------------------------
 1/38=1,172=1/1;
 2/12=2,15=1,17=6,18=5,40=1/2;
 3/5=1,6=6,7=1,11=9,24=110,25=1,30=1/1,2,3;
 4//1;
 5/5=2,6=8,7=128,8=3,13=1,38=5,85=64/2,8;
 6/7=2,8=2,9=2,10=2,15=8,20=3,28=1,33=2/1,2;
 99/5=1,9=1/99;
 ----------------------------------------------
 MEP step - Input generated by PyRED MOLECULE-1
 ----------------------------------------------
 Symbolic Z-matrix:
 Charge =  0 Multiplicity = 1
 O                     0.96266   0.        0. 
 H                     1.21471   0.92908   0. 
 H                     0.        0.        0. 
 
 ITRead=  0  0  0
 MicOpt= -1 -1 -1
 NAtoms=      3 NQM=        3 NQMF=       0 NMMI=      0 NMMIF=      0
                NMic=       0 NMicF=      0.
                          Input orientation:                          
 ---------------------------------------------------------------------
 Center     Atomic      Atomic             Coordinates (Angstroms)
 Number     Number       Type             X           Y           Z
 ---------------------------------------------------------------------
      1          8           0        0.962659    0.000000    0.000000
      2          1           0        1.214710    0.929076    0.000000
      3          1           0        0.000000    0.000000    0.000000
 ---------------------------------------------------------------------
 Stoichiometry    H2O
 Framework group  C2V[C2(O),SGV(H2)]
 Standard basis: 6-31G(d) (6D, 7F)
    19 basis functions,    36 primitive gaussians,    19 cartesian basis functions
     5 alpha electrons        5 beta electrons
 Requested convergence on RMS density matrix=1.00D-08 within  64 cycles.
 Requested convergence on MAX density matrix=1.00D-06.
 Requested convergence on             energy=1.00D-06.
 SCF Done:  E(RHF) =  -76.0102609444     A.U. after   10 cycles
            NFock= 10  Conv=0.41D-08     -V/T= 2.0028
 Mulliken charges:
     1  O   -0.867162
     2  H    0.433581
     3  H    0.433581
 Sum of Mulliken charges =   0.00000
 Dipole moment (field-independent basis, Debye):
    X=             -1.3475    Y=              1.7617    Z=             -0.0000  Tot=              2.2180
 Quadrupole moment (field-independent basis, Debye-Ang):
   XX=             -7.1967   YY=             -4.9663   ZZ=             -7.2377
   XY=              2.3668   XZ=             -0.0000   YZ=              0.0000
 Traceless Quadrupole moment (field-independent basis, Debye-Ang):
   XX=             -0.7298   YY=              1.5006   ZZ=             -0.7708
   XY=              2.3668   XZ=             -0.0000   YZ=              0.0000
 Octapole moment (field-independent basis, Debye-Ang**2):
  XXX=            -17.9661  YYY=              0.5173  ZZZ=             -0.0000  XYY=             -4.0570
  XXY=              2.6742  XXZ=             -0.0000  XZZ=             -6.6836  YZZ=             -0.3712
  YYZ=             -0.0000  XYZ=              0.0000
 Hexadecapole moment (field-independent basis, Debye-Ang**3):
 XXXX=            -38.8051 YYYY=             -4.9407 ZZZZ=             -5.2196 XXXY=              2.5976
 XXXZ=             -0.0000 YYYX=              0.8167 YYYZ=              0.0000 ZZZX=             -0.0000
 ZZZY=              0.0000 XXYY=             -5.3334 XXZZ=             -8.1763 YYZZ=             -1.9863
 XXYZ=              0.0000 YYXZ=             -0.0000 ZZXY=             -0.4113
 Breneman (CHELPG) radii used.
 Atom Element Radius
    1     8    1.70
    2     1    1.45
    3     1    1.45
 Generate Potential Derived Charges using the Breneman model, NDens= 1.
 Grid spacing= 0.300 Box extension= 2.800
 NStep X,Y,Z=   24     23     20   Total possible points=       11040
 Number of Points to Fit=    4008
 Approximate Molecular Volume=  165.34 A**3
            Electrostatic Properties Using The SCF Density.


       Atomic Center    1 is at   0.962659  0.000000  0.000000
       Atomic Center    2 is at   1.214710  0.929076  0.000000
       Atomic Center    3 is at   0.000000  0.000000  0.000000
      ESP Fit Center    4 is at  -2.542645 -1.035462 -0.450000
      ESP Fit Center    5 is at  -2.542645 -1.035462 -0.150000
      ESP Fit Center    6 is at  -2.542645 -1.035462  0.150000
      ESP Fit Center    7 is at  -2.542645 -1.035462  0.450000
      ESP Fit Center    8 is at  -2.542645 -0.735462 -0.750000
      ESP Fit Center    9 is at  -2.542645 -0.735462 -0.450000
      ESP Fit Center   10 is at  -2.542645 -0.735462 -0.150000
      ESP Fit Center   11 is at  -2.542645 -0.735462  0.150000
      ESP Fit Center   12 is at  -2.542645 -0.735462  0.450000
      ESP Fit Center   13 is at  -2.542645 -0.735462  0.750000
      ESP Fit Center   14 is at  -2.542645 -0.435462 -1.050000
      ESP Fit Center   15 is at  -2.542645 -0.435462 -0.750000
      ESP Fit Center   16 is at  -2.542645 -0.435462 -0.450000
      ESP Fit Center   17 is at  -2.542645 -0.435462 -0.150000
      ESP Fit Center   18 is at  -2.542645 -0.435462  0.150000
      ESP Fit Center   19 is at  -2.542645 -0.435462  0.450000
      ESP Fit Center   20 is at  -2.542645 -0.435462  0.750000
      ESP Fit Center   21 is at  -2.542645 -0.435462  1.050000
      ESP Fit Center   22 is at  -2.542645 -0.135462 -1.050000
      ESP Fit Center   23 is at  -2.542645 -0.135462 -0.750000
      ESP Fit Center   24 is at  -2.542645 -0.135462 -0.450000
      ESP Fit Center   25 is at  -2.542645 -0.135462 -0.150000
      ESP Fit Center   26 is at  -2.542645 -0.135462  0.150000
      ESP Fit Center   27 is at  -2.542645 -0.135462  0.450000
      ESP Fit Center   28 is at  -2.542645 -0.135462  0.750000
      ESP Fit Center   29 is at  -2.542645 -0.135462  1.050000
      ESP Fit Center   30 is at  -2.542645  0.164538 -1.050000
      ESP Fit Center   31 is at  -2.542645  0.164538 -0.750000
      ESP Fit Center   32 is at  -2.542645  0.164538 -0.450000
      ESP Fit Center   33 is at  -2.542645  0.164538 -0.150000
      ESP Fit Center   34 is at  -2.542645  0.164538  0.150000
      ESP Fit Center   35 is at  -2.542645  0.164538  0.450000
      ESP Fit Center   36 is at  -2.542645  0.164538  0.750000
      ESP Fit Center   37 is at  -2.542645  0.164538  1.050000
      ESP Fit Center   38 is at  -2.542645  0.464538 -1.050000
      ESP Fit Center   39 is at  -2.542645  0.464538 -0.750000
      ESP Fit Center   40 is at  -2.542645  0.464538 -0.450000
      ESP Fit Center   41 is at  -2.542645  0.464538 -0.150000
      ESP Fit Center   42 is at  -2.542645  0.464538  0.150000
      ESP Fit Center   43 is at  -2.542645  0.464538  0.450000
      ESP Fit Center   44 is at  -2.542645  0.464538  0.750000
      ESP Fit Center   45 is at  -2.542645  0.464538  1.050000
      ESP Fit Center   46 is at  -2.542645  0.764538 -0.750000
      ESP Fit Center   47 is at  -2.542645  0.764538 -0.450000
      ESP Fit Center   48 is at  -2.542645  0.764538 -0.150000
      ESP Fit Center   49 is at  -2.542645  0.764538  0.150000
      ESP Fit Center   50 is at  -2.542645  0.764538  0.450000
      ESP Fit Center   51 is at  -2.542645  0.764538  0.750000
      ESP Fit Center   52 is at  -2.542645  1.064538 -0.450000
      ESP Fit Center   53 is at  -2.542645  1.064538 -0.150000
      ESP Fit Center   54 is at  -2.542645  1.064538  0.150000
      ESP Fit Center   55 is at  -2.542645  1.064538  0.450000
      ESP Fit Center   56 is at  -2.242645 -1.635462 -0.150000
      ESP Fit Center   57 is at  -2.242645 -1.635462  0.150000
      ESP Fit Center   58 is at  -2.242645 -1.335462 -0.750000
      ESP Fit Center   59 is at  -2.242645 -1.335462 -0.450000
      ESP Fit Center   60 is at  -2.242645 -1.335462 -0.150000
      ESP Fit Center   61 is at  -2.242645 -1.335462  0.150000
      ESP Fit Center   62 is at  -2.242645 -1.335462  0.450000
      ESP Fit Center   63 is at  -2.242645 -1.335462  0.750000
      ESP Fit Center   64 is at  -2.242645 -1.035462 -1.050000
      ESP Fit Center   65 is at  -2.242645 -1.035462 -0.750000
      ESP Fit Center   66 is at  -2.242645 -1.035462 -0.450000
      ESP Fit Center   67 is at  -2.242645 -1.035462 -0.150000
      ESP Fit Center   68 is at  -2.242645 -1.035462  0.150000
      ESP Fit Center   69 is at  -2.242645 -1.035462  0.450000
      ESP Fit Center   70 is at  -2.242645 -1.035462  0.750000
      ESP Fit Center   71 is at  -2.242645 -1.035462  1.050000
      ESP Fit Center   72 is at  -2.242645 -0.735462 -1.350000
      ESP Fit Center   73 is at  -2.242645 -0.735462 -1.050000
      ESP Fit Center   74 is at  -2.242645 -0.735462 -0.750000
      ESP Fit Center   75 is at  -2.242645 -0.735462 -0.450000
      ESP Fit Center   76 is at  -2.242645 -0.735462 -0.150000
      ESP Fit Center   77 is at  -2.242645 -0.735462  0.150000
      ESP Fit Center   78 is at  -2.242645 -0.735462  0.450000
      ESP Fit Center   79 is at  -2.242645 -0.735462  0.750000
      ESP Fit Center   80 is at  -2.242645 -0.735462  1.050000
      ESP Fit Center   81 is at  -2.242645 -0.735462  1.350000
      ESP Fit Center   82 is at  -2.242645 -0.435462 -1.350000
      ESP Fit Center   83 is at  -2.242645 -0.435462 -1.050000
      ESP Fit Center   84 is at  -2.242645 -0.435462 -0.750000
      ESP Fit Center   85 is at  -2.242645 -0.435462 -0.450000
      ESP Fit Center   86 is at  -2.242645 -0.435462 -0.150000
      ESP Fit Center   87 is at  -2.242645 -0.435462  0.150000
      ESP Fit Center   88 is at  -2.242645 -0.435462  0.450000
      ESP Fit Center   89 is at  -2.242645 -0.435462  0.750000
      ESP Fit Center   90 is at  -2.242645 -0.435462  1.050000
      ESP Fit Center   91 is at  -2.242645 -0.435462  1.350000
      ESP Fit Center   92 is at  -2.242645 -0.135462 -1.650000
      ESP Fit Center   93 is at  -2.242645 -0.135462 -1.350000
      ESP Fit Center   94 is at  -2.242645 -0.135462 -1.050000
      ESP Fit Center   95 is at  -2.242645 -0.135462 -0.750000
      ESP Fit Center   96 is at  -2.242645 -0.135462 -0.450000
      ESP Fit Center   97 is at  -2.242645 -0.135462 -0.150000
      ESP Fit Center   98 is at  -2.242645 -0.135462  0.150000
      ESP Fit Center   99 is at  -2.242645 -0.135462  0.450000
      ESP Fit Center  100 is at  -2.242645 -0.135462  0.750000
      ESP Fit Center  101 is at  -2.242645 -0.135462  1.050000
      ESP Fit Center  102 is at  -2.242645 -0.135462  1.350000
      ESP Fit Center  103 is at  -2.242645 -0.135462  1.650000
      ESP Fit Center  104 is at  -2.242645  0.164538 -1.650000
      ESP Fit Center  105 is at  -2.242645  0.164538 -1.350000
      ESP Fit Center  106 is at  -2.242645  0.164538 -1.050000
      ESP Fit Center  107 is at  -2.242645  0.164538 -0.750000
      ESP Fit Center  108 is at  -2.242645  0.164538 -0.450000
      ESP Fit Center  109 is at  -2.242645  0.164538 -0.150000
      ESP Fit Center  110 is at  -2.242645  0.164538  0.150000
      ESP Fit Center  111 is at  -2.242645  0.164538  0.450000
      ESP Fit Center  112 is at  -2.242645  0.164538  0.750000
      ESP Fit Center  113 is at  -2.242645  0.164538  1.050000
      ESP Fit Center  114 is at  -2.242645  0.164538  1.350000
      ESP Fit Center  115 is at  -2.242645  0.164538  1.650000
      ESP Fit Center  116 is at  -2.242645  0.464538 -1.350000
      ESP Fit Center  117 is at  -2.242645  0.464538 -1.050000
      ESP Fit Center  118 is at  -2.242645  0.464538 -0.750000
      ESP Fit Center  119 is at  -2.242645  0.464538 -0.450000
      ESP Fit Center  120 is at  -2.242645  0.464538 -0.150000
      ESP Fit Center  121 is at  -2.242645  0.464538  0.150000
      ESP Fit Center  122 is at  -2.242645  0.464538  0.450000
      ESP Fit Center  123 is at  -2.242645  0.464538  0.750000
      ESP Fit Center  124 is at  -2.242645  0.464538  1.050000
      ESP Fit Center  125 is at  -2.242645  0.464538  1.350000
      ESP Fit Center  126 is at  -2.242645  0.764538 -1.350000
      ESP Fit Center  127 is at  -2.242645  0.764538 -1.050000
      ESP Fit Center  128 is at  -2.242645  0.764538 -0.750000
      ESP Fit Center  129 is at  -2.242645  0.764538 -0.450000
      ESP Fit Center  130 is at  -2.242645  0.764538 -0.150000
      ESP Fit Center  131 is at  -2.242645  0.764538  0.150000
      ESP Fit Center  132 is at  -2.242645  0.764538  0.450000
      ESP Fit Center  133 is at  -2.242645  0.764538  0.750000
      ESP Fit Center  134 is at  -2.242645  0.764538  1.050000
      ESP Fit Center  135 is at  -2.242645  0.764538  1.350000
      ESP Fit Center  136 is at  -2.242645  1.064538 -1.050000
      ESP Fit Center  137 is at  -2.242645  1.064538 -0.750000
      ESP Fit Center  138 is at  -2.242645  1.064538 -0.450000
      ESP Fit Center  139 is at  -2.242645  1.064538 -0.150000
      ESP Fit Center  140 is at  -2.242645  1.064538  0.150000
      ESP Fit Center  141 is at  -2.242645  1.064538  0.450000
      ESP Fit Center  142 is at  -2.242645  1.064538  0.750000
      ESP Fit Center  143 is at  -2.242645  1.064538  1.050000
      ESP Fit Center  144 is at  -2.242645  1.364538 -0.750000
      ESP Fit Center  145 is at  -2.242645  1.364538 -0.450000
      ESP Fit Center  146 is at  -2.242645  1.364538 -0.150000
      ESP Fit Center  147 is at  -2.242645  1.364538  0.150000
      ESP Fit Center  148 is at  -2.242645  1.364538  0.450000
      ESP Fit Center  149 is at  -2.242645  1.364538  0.750000
      ESP Fit Center  150 is at  -2.242645  1.664538 -0.150000
      ESP Fit Center  151 is at  -2.242645  1.664538  0.150000
      ESP Fit Center  152 is at  -1.942645 -1.935462 -0.450000
      ESP Fit Center  153 is at  -1.942645 -1.935462 -0.150000
      ESP Fit Center  154 is at  -1.942645 -1.935462  0.150000
      ESP Fit Center  155 is at  -1.942645 -1.935462  0.450000
      ESP Fit Center  156 is at  -1.942645 -1.635462 -1.050000
      ESP Fit Center  157 is at  -1.942645 -1.635462 -0.750000
      ESP Fit Center  158 is at  -1.942645 -1.635462 -0.450000
      ESP Fit Center  159 is at  -1.942645 -1.635462 -0.150000
      ESP Fit Center  160 is at  -1.942645 -1.635462  0.150000
      ESP Fit Center  161 is at  -1.942645 -1.635462  0.450000
      ESP Fit Center  162 is at  -1.942645 -1.635462  0.750000
      ESP Fit Center  163 is at  -1.942645 -1.635462  1.050000
      ESP Fit Center  164 is at  -1.942645 -1.335462 -1.350000
      ESP Fit Center  165 is at  -1.942645 -1.335462 -1.050000
      ESP Fit Center  166 is at  -1.942645 -1.335462 -0.750000
      ESP Fit Center  167 is at  -1.942645 -1.335462 -0.450000
      ESP Fit Center  168 is at  -1.942645 -1.335462 -0.150000
      ESP Fit Center  169 is at  -1.942645 -1.335462  0.150000
      ESP Fit Center  170 is at  -1.942645 -1.335462  0.450000
      ESP Fit Center  171 is at  -1.942645 -1.335462  0.750000
      ESP Fit Center  172 is at  -1.942645 -1.335462  1.050000
      ESP Fit Center  173 is at  -1.942645 -1.335462  1.350000
      ESP Fit Center  174 is at  -1.942645 -1.035462 -1.650000
      ESP Fit Center  175 is at  -1.942645 -1.035462 -1.350000
      ESP Fit Center  176 is at  -1.942645 -1.035462 -1.050000
      ESP Fit Center  177 is at  -1.942645 -1.035462 -0.750000
      ESP Fit Center  178 is at  -1.942645 -1.035462 -0.450000
      ESP Fit Center  179 is at  -1.942645 -1.035462 -0.150000
      ESP Fit Center  180 is at  -1.942645 -1.035462  0.150000
      ESP Fit Center  181 is at  -1.942645 -1.035462  0.450000
      ESP Fit Center  182 is at  -1.942645 -1.035462  0.750000
      ESP Fit Center  183 is at  -1.942645 -1.035462  1.050000
      ESP Fit Center  184 is at  -1.942645 -1.035462  1.350000
      ESP Fit Center  185 is at  -1.942645 -1.035462  1.650000
      ESP Fit Center  186 is at  -1.942645 -0.735462 -1.650000
      ESP Fit Center  187 is at  -1.942645 -0.735462 -1.350000
      ESP Fit Center  188 is at  -1.942645 -0.735462 -1.050000
      ESP Fit Center  189 is at  -1.942645 -0.735462 -0.750000
      ESP Fit Center  190 is at  -1.942645 -0.735462 -0.450000
      ESP Fit Center  191 is at  -1.942645 -0.735462 -0.150000
      ESP Fit Center  192 is at  -1.942645 -0.735462  0.150000
      ESP Fit Center  193 is at  -1.942645 -0.735462  0.450000
      ESP Fit Center  194 is at  -1.942645 -0.735462  0.750000
      ESP Fit Center  195 is at  -1.942645 -0.735462  1.050000
      ESP Fit Center  196 is at  -1.942645 -0.735462  1.350000
      ESP Fit Center  197 is at  -1.942645 -0.735462  1.650000
      ESP Fit Center  198 is at  -1.942645 -0.435462 -1.950000
      ESP Fit Center  199 is at  -1.942645 -0.435462 -1.650000
      ESP Fit Center  200 is at  -1.942645 -0.435462 -1.350000
      ESP Fit Center  201 is at  -1.942645 -0.435462 -1.050000
      ESP Fit Center  202 is at  -1.942645 -0.435462 -0.750000
      ESP Fit Center  203 is at  -1.942645 -0.435462 -0.450000
      ESP Fit Center  204 is at  -1.942645 -0.435462 -0.150000
      ESP Fit Center  205 is at  -1.942645 -0.435462  0.150000
      ESP Fit Center  206 is at  -1.942645 -0.435462  0.450000
      ESP Fit Center  207 is at  -1.942645 -0.435462  0.750000
      ESP Fit Center  208 is at  -1.942645 -0.435462  1.050000
      ESP Fit Center  209 is at  -1.942645 -0.435462  1.350000
      ESP Fit Center  210 is at  -1.942645 -0.435462  1.650000
      ESP Fit Center  211 is at  -1.942645 -0.435462  1.950000
      ESP Fit Center  212 is at  -1.942645 -0.135462 -1.950000
      ESP Fit Center  213 is at  -1.942645 -0.135462 -1.650000
      ESP Fit Center  214 is at  -1.942645 -0.135462 -1.350000
      ESP Fit Center  215 is at  -1.942645 -0.135462 -1.050000
      ESP Fit Center  216 is at  -1.942645 -0.135462 -0.750000
      ESP Fit Center  217 is at  -1.942645 -0.135462 -0.450000
      ESP Fit Center  218 is at  -1.942645 -0.135462 -0.150000
      ESP Fit Center  219 is at  -1.942645 -0.135462  0.150000
      ESP Fit Center  220 is at  -1.942645 -0.135462  0.450000
      ESP Fit Center  221 is at  -1.942645 -0.135462  0.750000
      ESP Fit Center  222 is at  -1.942645 -0.135462  1.050000
      ESP Fit Center  223 is at  -1.942645 -0.135462  1.350000
      ESP Fit Center  224 is at  -1.942645 -0.135462  1.650000
      ESP Fit Center  225 is at  -1.942645 -0.135462  1.950000
      ESP Fit Center  226 is at  -1.942645  0.164538 -1.950000
      ESP Fit Center  227 is at  -1.942645  0.164538 -1.650000
      ESP Fit Center  228 is at  -1.942645  0.164538 -1.350000
      ESP Fit Center  229 is at  -1.942645  0.164538 -1.050000
      ESP Fit Center  230 is at  -1.942645  0.164538 -0.750000
      ESP Fit Center  231 is at  -1.942645  0.164538 -0.450000
      ESP Fit Center  232 is at  -1.942645  0.164538 -0.150000
      ESP Fit Center  233 is at  -1.942645  0.164538  0.150000
      ESP Fit Center  234 is at  -1.942645  0.164538  0.450000
      ESP Fit Center  235 is at  -1.942645  0.164538  0.750000
      ESP Fit Center  236 is at  -1.942645  0.164538  1.050000
      ESP Fit Center  237 is at  -1.942645  0.164538  1.350000
      ESP Fit Center  238 is at  -1.942645  0.164538  1.650000
      ESP Fit Center  239 is at  -1.942645  0.164538  1.950000
      ESP Fit Center  240 is at  -1.942645  0.464538 -1.950000
      ESP Fit Center  241 is at  -1.942645  0.464538 -1.650000
      ESP Fit Center  242 is at  -1.942645  0.464538 -1.350000
      ESP Fit Center  243 is at  -1.942645  0.464538 -1.050000
      ESP Fit Center  244 is at  -1.942645  0.464538 -0.750000
      ESP Fit Center  245 is at  -1.942645  0.464538 -0.450000
      ESP Fit Center  246 is at  -1.942645  0.464538 -0.150000
      ESP Fit Center  247 is at  -1.942645  0.464538  0.150000
      ESP Fit Center  248 is at  -1.942645  0.464538  0.450000
      ESP Fit Center  249 is at  -1.942645  0.464538  0.750000
      ESP Fit Center  250 is at  -1.942645  0.464538  1.050000
      ESP Fit Center  251 is at  -1.942645  0.464538  1.350000
      ESP Fit Center  252 is at  -1.942645  0.464538  1.650000
      ESP Fit Center  253 is at  -1.942645  0.464538  1.950000
      ESP Fit Center  254 is at  -1.942645  0.764538 -1.650000
      ESP Fit Center  255 is at  -1.942645  0.764538 -1.350000
      ESP Fit Center  256 is at  -1.942645  0.764538 -1.050000
      ESP Fit Center  257 is at  -1.942645  0.764538 -0.750000
      ESP Fit Center  258 is at  -1.942645  0.764538 -0.450000
      ESP Fit Center  259 is at  -1.942645  0.764538 -0.150000
      ESP Fit Center  260 is at  -1.942645  0.764538  0.150000
      ESP Fit Center  261 is at  -1.942645  0.764538  0.450000
      ESP Fit Center  262 is at  -1.942645  0.764538  0.750000
      ESP Fit Center  263 is at  -1.942645  0.764538  1.050000
      ESP Fit Center  264 is at  -1.942645  0.764538  1.350000
      ESP Fit Center  265 is at  -1.942645  0.764538  1.650000
      ESP Fit Center  266 is at  -1.942645  1.064538 -1.650000
      ESP Fit Center  267 is at  -1.942645  1.064538 -1.350000
      ESP Fit Center  268 is at  -1.942645  1.064538 -1.050000
      ESP Fit Center  269 is at  -1.942645  1.064538 -0.750000
      ESP Fit Center  270 is at  -1.942645  1.064538 -0.450000
      ESP Fit Center  271 is at  -1.942645  1.064538 -0.150000
      ESP Fit Center  272 is at  -1.942645  1.064538  0.150000
      ESP Fit Center  273 is at  -1.942645  1.064538  0.450000
      ESP Fit Center  274 is at  -1.942645  1.064538  0.750000
      ESP Fit Center  275 is at  -1.942645  1.064538  1.050000
      ESP Fit Center  276 is at  -1.942645  1.064538  1.350000
      ESP Fit Center  277 is at  -1.942645  1.064538  1.650000
      ESP Fit Center  278 is at  -1.942645  1.364538 -1.350000
      ESP Fit Center  279 is at  -1.942645  1.364538 -1.050000
      ESP Fit Center  280 is at  -1.942645  1.364538 -0.750000
      ESP Fit Center  281 is at  -1.942645  1.364538 -0.450000
      ESP Fit Center  282 is at  -1.942645  1.364538 -0.150000
      ESP Fit Center  283 is at  -1.942645  1.364538  0.150000
      ESP Fit Center  284 is at  -1.942645  1.364538  0.450000
      ESP Fit Center  285 is at  -1.942645  1.364538  0.750000
      ESP Fit Center  286 is at  -1.942645  1.364538  1.050000
      ESP Fit Center  287 is at  -1.942645  1.364538  1.350000
      ESP Fit Center  288 is at  -1.942645  1.664538 -1.050000
      ESP Fit Center  289 is at  -1.942645  1.664538 -0.750000
      ESP Fit Center  290 is at  -1.942645  1.664538 -0.450000
      ESP Fit Center  291 is at  -1.942645  1.664538 -0.150000
      ESP Fit Center  292 is at  -1.942645  1.664538  0.150000
      ESP Fit Center  293 is at  -1.942645  1.664538  0.450000
      ESP Fit Center  294 is at  -1.942645  1.664538  0.750000
      ESP Fit Center  295 is at  -1.942645  1.664538  1.050000
      ESP Fit Center  296 is at  -1.942645  1.964538 -0.450000
      ESP Fit Center  297 is at  -1.942645  1.964538 -0.150000
      ESP Fit Center  298 is at  -1.942645  1.964538  0.150000
      ESP Fit Center  299 is at  -1.942645  1.964538  0.450000
      ESP Fit Center  300 is at  -1.642645 -2.235462 -0.150000
      ESP Fit Center  301 is at  -1.642645 -2.235462  0.150000
      ESP Fit Center  302 is at  -1.642645 -1.935462 -1.050000
      ESP Fit Center  303 is at  -1.642645 -1.935462 -0.750000
      ESP Fit Center  304 is at  -1.642645 -1.935462 -0.450000
      ESP Fit Center  305 is at  -1.642645 -1.935462 -0.150000
      ESP Fit Center  306 is at  -1.642645 -1.935462  0.150000
      ESP Fit Center  307 is at  -1.642645 -1.935462  0.450000
      ESP Fit Center  308 is at  -1.642645 -1.935462  0.750000
      ESP Fit Center  309 is at  -1.642645 -1.935462  1.050000
      ESP Fit Center  310 is at  -1.642645 -1.635462 -1.350000
      ESP Fit Center  311 is at  -1.642645 -1.635462 -1.050000
      ESP Fit Center  312 is at  -1.642645 -1.635462 -0.750000
      ESP Fit Center  313 is at  -1.642645 -1.635462 -0.450000
      ESP Fit Center  314 is at  -1.642645 -1.635462 -0.150000
      ESP Fit Center  315 is at  -1.642645 -1.635462  0.150000
      ESP Fit Center  316 is at  -1.642645 -1.635462  0.450000
      ESP Fit Center  317 is at  -1.642645 -1.635462  0.750000
      ESP Fit Center  318 is at  -1.642645 -1.635462  1.050000
      ESP Fit Center  319 is at  -1.642645 -1.635462  1.350000
      ESP Fit Center  320 is at  -1.642645 -1.335462 -1.650000
      ESP Fit Center  321 is at  -1.642645 -1.335462 -1.350000
      ESP Fit Center  322 is at  -1.642645 -1.335462 -1.050000
      ESP Fit Center  323 is at  -1.642645 -1.335462 -0.750000
      ESP Fit Center  324 is at  -1.642645 -1.335462 -0.450000
      ESP Fit Center  325 is at  -1.642645 -1.335462 -0.150000
      ESP Fit Center  326 is at  -1.642645 -1.335462  0.150000
      ESP Fit Center  327 is at  -1.642645 -1.335462  0.450000
      ESP Fit Center  328 is at  -1.642645 -1.335462  0.750000
      ESP Fit Center  329 is at  -1.642645 -1.335462  1.050000
      ESP Fit Center  330 is at  -1.642645 -1.335462  1.350000
      ESP Fit Center  331 is at  -1.642645 -1.335462  1.650000
      ESP Fit Center  332 is at  -1.642645 -1.035462 -1.950000
      ESP Fit Center  333 is at  -1.642645 -1.035462 -1.650000
      ESP Fit Center  334 is at  -1.642645 -1.035462 -1.350000
      ESP Fit Center  335 is at  -1.642645 -1.035462 -1.050000
      ESP Fit Center  336 is at  -1.642645 -1.035462 -0.750000
      ESP Fit Center  337 is at  -1.642645 -1.035462 -0.450000
      ESP Fit Center  338 is at  -1.642645 -1.035462 -0.150000
      ESP Fit Center  339 is at  -1.642645 -1.035462  0.150000
      ESP Fit Center  340 is at  -1.642645 -1.035462  0.450000
      ESP Fit Center  341 is at  -1.642645 -1.035462  0.750000
      ESP Fit Center  342 is at  -1.642645 -1.035462  1.050000
      ESP Fit Center  343 is at  -1.642645 -1.035462  1.350000
      ESP Fit Center  344 is at  -1.642645 -1.035462  1.650000
      ESP Fit Center  345 is at  -1.642645 -1.035462  1.950000
      ESP Fit Center  346 is at  -1.642645 -0.735462 -1.950000
      ESP Fit Center  347 is at  -1.642645 -0.735462 -1.650000
      ESP Fit Center  348 is at  -1.642645 -0.735462 -1.350000
      ESP Fit Center  349 is at  -1.642645 -0.735462 -1.050000
      ESP Fit Center  350 is at  -1.642645 -0.735462 -0.750000
      ESP Fit Center  351 is at  -1.642645 -0.735462 -0.450000
      ESP Fit Center  352 is at  -1.642645 -0.735462 -0.150000
      ESP Fit Center  353 is at  -1.642645 -0.735462  0.150000
      ESP Fit Center  354 is at  -1.642645 -0.735462  0.450000
      ESP Fit Center  355 is at  -1.642645 -0.735462  0.750000
      ESP Fit Center  356 is at  -1.642645 -0.735462  1.050000
      ESP Fit Center  357 is at  -1.642645 -0.735462  1.350000
      ESP Fit Center  358 is at  -1.642645 -0.735462  1.650000
      ESP Fit Center  359 is at  -1.642645 -0.735462  1.950000
      ESP Fit Center  360 is at  -1.642645 -0.435462 -1.950000
      ESP Fit Center  361 is at  -1.642645 -0.435462 -1.650000
      ESP Fit Center  362 is at  -1.642645 -0.435462 -1.350000
      ESP Fit Center  363 is at  -1.642645 -0.435462 -1.050000
      ESP Fit Center  364 is at  -1.642645 -0.435462 -0.750000
      ESP Fit Center  365 is at  -1.642645 -0.435462 -0.450000
      ESP Fit Center  366 is at  -1.642645 -0.435462 -0.150000
      ESP Fit Center  367 is at  -1.642645 -0.435462  0.150000
      ESP Fit Center  368 is at  -1.642645 -0.435462  0.450000
      ESP Fit Center  369 is at  -1.642645 -0.435462  0.750000
      ESP Fit Center  370 is at  -1.642645 -0.435462  1.050000
      ESP Fit Center  371 is at  -1.642645 -0.435462  1.350000
      ESP Fit Center  372 is at  -1.642645 -0.435462  1.650000
      ESP Fit Center  373 is at  -1.642645 -0.435462  1.950000
      ESP Fit Center  374 is at  -1.642645 -0.135462 -2.250000
      ESP Fit Center  375 is at  -1.642645 -0.135462 -1.950000
      ESP Fit Center  376 is at  -1.642645 -0.135462 -1.650000
      ESP Fit Center  377 is at  -1.642645 -0.135462 -1.350000
      ESP Fit Center  378 is at  -1.642645 -0.135462 -1.050000
      ESP Fit Center  379 is at  -1.642645 -0.135462 -0.750000
      ESP Fit Center  380 is at  -1.642645 -0.135462 -0.450000
      ESP Fit Center  381 is at  -1.642645 -0.135462 -0.150000
      ESP Fit Center  382 is at  -1.642645 -0.135462  0.150000
      ESP Fit Center  383 is at  -1.642645 -0.135462  0.450000
      ESP Fit Center  384 is at  -1.642645 -0.135462  0.750000
      ESP Fit Center  385 is at  -1.642645 -0.135462  1.050000
      ESP Fit Center  386 is at  -1.642645 -0.135462  1.350000
      ESP Fit Center  387 is at  -1.642645 -0.135462  1.650000
      ESP Fit Center  388 is at  -1.642645 -0.135462  1.950000
      ESP Fit Center  389 is at  -1.642645 -0.135462  2.250000
      ESP Fit Center  390 is at  -1.642645  0.164538 -2.250000
      ESP Fit Center  391 is at  -1.642645  0.164538 -1.950000
      ESP Fit Center  392 is at  -1.642645  0.164538 -1.650000
      ESP Fit Center  393 is at  -1.642645  0.164538 -1.350000
      ESP Fit Center  394 is at  -1.642645  0.164538 -1.050000
      ESP Fit Center  395 is at  -1.642645  0.164538 -0.750000
      ESP Fit Center  396 is at  -1.642645  0.164538 -0.450000
      ESP Fit Center  397 is at  -1.642645  0.164538 -0.150000
      ESP Fit Center  398 is at  -1.642645  0.164538  0.150000
      ESP Fit Center  399 is at  -1.642645  0.164538  0.450000
      ESP Fit Center  400 is at  -1.642645  0.164538  0.750000
      ESP Fit Center  401 is at  -1.642645  0.164538  1.050000
      ESP Fit Center  402 is at  -1.642645  0.164538  1.350000
      ESP Fit Center  403 is at  -1.642645  0.164538  1.650000
      ESP Fit Center  404 is at  -1.642645  0.164538  1.950000
      ESP Fit Center  405 is at  -1.642645  0.164538  2.250000
      ESP Fit Center  406 is at  -1.642645  0.464538 -1.950000
      ESP Fit Center  407 is at  -1.642645  0.464538 -1.650000
      ESP Fit Center  408 is at  -1.642645  0.464538 -1.350000
      ESP Fit Center  409 is at  -1.642645  0.464538 -1.050000
      ESP Fit Center  410 is at  -1.642645  0.464538 -0.750000
      ESP Fit Center  411 is at  -1.642645  0.464538 -0.450000
      ESP Fit Center  412 is at  -1.642645  0.464538 -0.150000
      ESP Fit Center  413 is at  -1.642645  0.464538  0.150000
      ESP Fit Center  414 is at  -1.642645  0.464538  0.450000
      ESP Fit Center  415 is at  -1.642645  0.464538  0.750000
      ESP Fit Center  416 is at  -1.642645  0.464538  1.050000
      ESP Fit Center  417 is at  -1.642645  0.464538  1.350000
      ESP Fit Center  418 is at  -1.642645  0.464538  1.650000
      ESP Fit Center  419 is at  -1.642645  0.464538  1.950000
      ESP Fit Center  420 is at  -1.642645  0.764538 -1.950000
      ESP Fit Center  421 is at  -1.642645  0.764538 -1.650000
      ESP Fit Center  422 is at  -1.642645  0.764538 -1.350000
      ESP Fit Center  423 is at  -1.642645  0.764538 -1.050000
      ESP Fit Center  424 is at  -1.642645  0.764538 -0.750000
      ESP Fit Center  425 is at  -1.642645  0.764538 -0.450000
      ESP Fit Center  426 is at  -1.642645  0.764538 -0.150000
      ESP Fit Center  427 is at  -1.642645  0.764538  0.150000
      ESP Fit Center  428 is at  -1.642645  0.764538  0.450000
      ESP Fit Center  429 is at  -1.642645  0.764538  0.750000
      ESP Fit Center  430 is at  -1.642645  0.764538  1.050000
      ESP Fit Center  431 is at  -1.642645  0.764538  1.350000
      ESP Fit Center  432 is at  -1.642645  0.764538  1.650000
      ESP Fit Center  433 is at  -1.642645  0.764538  1.950000
      ESP Fit Center  434 is at  -1.642645  1.064538 -1.950000
      ESP Fit Center  435 is at  -1.642645  1.064538 -1.650000
      ESP Fit Center  436 is at  -1.642645  1.064538 -1.350000
      ESP Fit Center  437 is at  -1.642645  1.064538 -1.050000
      ESP Fit Center  438 is at  -1.642645  1.064538 -0.750000
      ESP Fit Center  439 is at  -1.642645  1.064538 -0.450000
      ESP Fit Center  440 is at  -1.642645  1.064538 -0.150000
      ESP Fit Center  441 is at  -1.642645  1.064538  0.150000
      ESP Fit Center  442 is at  -1.642645  1.064538  0.450000
      ESP Fit Center  443 is at  -1.642645  1.064538  0.750000
      ESP Fit Center  444 is at  -1.642645  1.064538  1.050000
      ESP Fit Center  445 is at  -1.642645  1.064538  1.350000
      ESP Fit Center  446 is at  -1.642645  1.064538  1.650000
      ESP Fit Center  447 is at  -1.642645  1.064538  1.950000
      ESP Fit Center  448 is at  -1.642645  1.364538 -1.650000
      ESP Fit Center  449 is at  -1.642645  1.364538 -1.350000
      ESP Fit Center  450 is at  -1.642645  1.364538 -1.050000
      ESP Fit Center  451 is at  -1.642645  1.364538 -0.750000
      ESP Fit Center  452 is at  -1.642645  1.364538 -0.450000
      ESP Fit Center  453 is at  -1.642645  1.364538 -0.150000
      ESP Fit Center  454 is at  -1.642645  1.364538  0.150000
      ESP Fit Center  455 is at  -1.642645  1.364538  0.450000
      ESP Fit Center  456 is at  -1.642645  1.364538  0.750000
      ESP Fit Center  457 is at  -1.642645  1.364538  1.050000
      ESP Fit Center  458 is at  -1.642645  1.364538  1.350000
      ESP Fit Center  459 is at  -1.642645  1.364538  1.650000
      ESP Fit Center  460 is at  -1.642645  1.664538 -1.350000
      ESP Fit Center  461 is at  -1.642645  1.664538 -1.050000
      ESP Fit Center  462 is at  -1.642645  1.664538 -0.750000
      ESP Fit Center  463 is at  -1.642645  1.664538 -0.450000
      ESP Fit Center  464 is at  -1.642645  1.664538 -0.150000
      ESP Fit Center  465 is at  -1.642645  1.664538  0.150000
      ESP Fit Center  466 is at  -1.642645  1.664538  0.450000
      ESP Fit Center  467 is at  -1.642645  1.664538  0.750000
      ESP Fit Center  468 is at  -1.642645  1.664538  1.050000
      ESP Fit Center  469 is at  -1.642645  1.664538  1.350000
      ESP Fit Center  470 is at  -1.642645  1.964538 -1.050000
      ESP Fit Center  471 is at  -1.642645  1.964538 -0.750000
      ESP Fit Center  472 is at  -1.642645  1.964538 -0.450000
      ESP Fit Center  473 is at  -1.642645  1.964538 -0.150000
      ESP Fit Center  474 is at  -1.642645  1.964538  0.150000
      ESP Fit Center  475 is at  -1.642645  1.964538  0.450000
      ESP Fit Center  476 is at  -1.642645  1.964538  0.750000
      ESP Fit Center  477 is at  -1.642645  1.964538  1.050000
      ESP Fit Center  478 is at  -1.342645 -2.235462 -0.750000
      ESP Fit Center  479 is at  -1.342645 -2.235462 -0.450000
      ESP Fit Center  480 is at  -1.342645 -2.235462 -0.150000
      ESP Fit Center  481 is at  -1.342645 -2.235462  0.150000
      ESP Fit Center  482 is at  -1.342645 -2.235462  0.450000
      ESP Fit Center  483 is at  -1.342645 -2.235462  0.750000
      ESP Fit Center  484 is at  -1.342645 -1.935462 -1.350000
      ESP Fit Center  485 is at  -1.342645 -1.935462 -1.050000
      ESP Fit Center  486 is at  -1.342645 -1.935462 -0.750000
      ESP Fit Center  487 is at  -1.342645 -1.935462 -0.450000
      ESP Fit Center  488 is at  -1.342645 -1.935462 -0.150000
      ESP Fit Center  489 is at  -1.342645 -1.935462  0.150000
      ESP Fit Center  490 is at  -1.342645 -1.935462  0.450000
      ESP Fit Center  491 is at  -1.342645 -1.935462  0.750000
      ESP Fit Center  492 is at  -1.342645 -1.935462  1.050000
      ESP Fit Center  493 is at  -1.342645 -1.935462  1.350000
      ESP Fit Center  494 is at  -1.342645 -1.635462 -1.650000
      ESP Fit Center  495 is at  -1.342645 -1.635462 -1.350000
      ESP Fit Center  496 is at  -1.342645 -1.635462 -1.050000
      ESP Fit Center  497 is at  -1.342645 -1.635462 -0.750000
      ESP Fit Center  498 is at  -1.342645 -1.635462 -0.450000
      ESP Fit Center  499 is at  -1.342645 -1.635462 -0.150000
      ESP Fit Center  500 is at  -1.342645 -1.635462  0.150000
      ESP Fit Center  501 is at  -1.342645 -1.635462  0.450000
      ESP Fit Center  502 is at  -1.342645 -1.635462  0.750000
      ESP Fit Center  503 is at  -1.342645 -1.635462  1.050000
      ESP Fit Center  504 is at  -1.342645 -1.635462  1.350000
      ESP Fit Center  505 is at  -1.342645 -1.635462  1.650000
      ESP Fit Center  506 is at  -1.342645 -1.335462 -1.950000
      ESP Fit Center  507 is at  -1.342645 -1.335462 -1.650000
      ESP Fit Center  508 is at  -1.342645 -1.335462 -1.350000
      ESP Fit Center  509 is at  -1.342645 -1.335462 -1.050000
      ESP Fit Center  510 is at  -1.342645 -1.335462 -0.750000
      ESP Fit Center  511 is at  -1.342645 -1.335462 -0.450000
      ESP Fit Center  512 is at  -1.342645 -1.335462 -0.150000
      ESP Fit Center  513 is at  -1.342645 -1.335462  0.150000
      ESP Fit Center  514 is at  -1.342645 -1.335462  0.450000
      ESP Fit Center  515 is at  -1.342645 -1.335462  0.750000
      ESP Fit Center  516 is at  -1.342645 -1.335462  1.050000
      ESP Fit Center  517 is at  -1.342645 -1.335462  1.350000
      ESP Fit Center  518 is at  -1.342645 -1.335462  1.650000
      ESP Fit Center  519 is at  -1.342645 -1.335462  1.950000
      ESP Fit Center  520 is at  -1.342645 -1.035462 -1.950000
      ESP Fit Center  521 is at  -1.342645 -1.035462 -1.650000
      ESP Fit Center  522 is at  -1.342645 -1.035462 -1.350000
      ESP Fit Center  523 is at  -1.342645 -1.035462 -1.050000
      ESP Fit Center  524 is at  -1.342645 -1.035462 -0.750000
      ESP Fit Center  525 is at  -1.342645 -1.035462 -0.450000
      ESP Fit Center  526 is at  -1.342645 -1.035462 -0.150000
      ESP Fit Center  527 is at  -1.342645 -1.035462  0.150000
      ESP Fit Center  528 is at  -1.342645 -1.035462  0.450000
      ESP Fit Center  529 is at  -1.342645 -1.035462  0.750000
      ESP Fit Center  530 is at  -1.342645 -1.035462  1.050000
      ESP Fit Center  531 is at  -1.342645 -1.035462  1.350000
      ESP Fit Center  532 is at  -1.342645 -1.035462  1.650000
      ESP Fit Center  533 is at  -1.342645 -1.035462  1.950000
      ESP Fit Center  534 is at  -1.342645 -0.735462 -2.250000
      ESP Fit Center  535 is at  -1.342645 -0.735462 -1.950000
      ESP Fit Center  536 is at  -1.342645 -0.735462 -1.650000
      ESP Fit Center  537 is at  -1.342645 -0.735462 -1.350000
      ESP Fit Center  538 is at  -1.342645 -0.735462 -1.050000
      ESP Fit Center  539 is at  -1.342645 -0.735462 -0.750000
      ESP Fit Center  540 is at  -1.342645 -0.735462 -0.450000
      ESP Fit Center  541 is at  -1.342645 -0.735462 -0.150000
      ESP Fit Center  542 is at  -1.342645 -0.735462  0.150000
      ESP Fit Center  543 is at  -1.342645 -0.735462  0.450000
      ESP Fit Center  544 is at  -1.342645 -0.735462  0.750000
      ESP Fit Center  545 is at  -1.342645 -0.735462  1.050000
      ESP Fit Center  546 is at  -1.342645 -0.735462  1.350000
      ESP Fit Center  547 is at  -1.342645 -0.735462  1.650000
      ESP Fit Center  548 is at  -1.342645 -0.735462  1.950000
      ESP Fit Center  549 is at  -1.342645 -0.735462  2.250000
      ESP Fit Center  550 is at  -1.342645 -0.435462 -2.250000
      ESP Fit Center  551 is at  -1.342645 -0.435462 -1.950000
      ESP Fit Center  552 is at  -1.342645 -0.435462 -1.650000
      ESP Fit Center  553 is at  -1.342645 -0.435462 -1.350000
      ESP Fit Center  554 is at  -1.342645 -0.435462 -1.050000
      ESP Fit Center  555 is at  -1.342645 -0.435462 -0.750000
      ESP Fit Center  556 is at  -1.342645 -0.435462 -0.450000
      ESP Fit Center  557 is at  -1.342645 -0.435462  0.450000
      ESP Fit Center  558 is at  -1.342645 -0.435462  0.750000
      ESP Fit Center  559 is at  -1.342645 -0.435462  1.050000
      ESP Fit Center  560 is at  -1.342645 -0.435462  1.350000
      ESP Fit Center  561 is at  -1.342645 -0.435462  1.650000
      ESP Fit Center  562 is at  -1.342645 -0.435462  1.950000
      ESP Fit Center  563 is at  -1.342645 -0.435462  2.250000
      ESP Fit Center  564 is at  -1.342645 -0.135462 -2.250000
      ESP Fit Center  565 is at  -1.342645 -0.135462 -1.950000
      ESP Fit Center  566 is at  -1.342645 -0.135462 -1.650000
      ESP Fit Center  567 is at  -1.342645 -0.135462 -1.350000
      ESP Fit Center  568 is at  -1.342645 -0.135462 -1.050000
      ESP Fit Center  569 is at  -1.342645 -0.135462 -0.750000
      ESP Fit Center  570 is at  -1.342645 -0.135462  0.750000
      ESP Fit Center  571 is at  -1.342645 -0.135462  1.050000
      ESP Fit Center  572 is at  -1.342645 -0.135462  1.350000
      ESP Fit Center  573 is at  -1.342645 -0.135462  1.650000
      ESP Fit Center  574 is at  -1.342645 -0.135462  1.950000
      ESP Fit Center  575 is at  -1.342645 -0.135462  2.250000
      ESP Fit Center  576 is at  -1.342645  0.164538 -2.250000
      ESP Fit Center  577 is at  -1.342645  0.164538 -1.950000
      ESP Fit Center  578 is at  -1.342645  0.164538 -1.650000
      ESP Fit Center  579 is at  -1.342645  0.164538 -1.350000
      ESP Fit Center  580 is at  -1.342645  0.164538 -1.050000
      ESP Fit Center  581 is at  -1.342645  0.164538 -0.750000
      ESP Fit Center  582 is at  -1.342645  0.164538  0.750000
      ESP Fit Center  583 is at  -1.342645  0.164538  1.050000
      ESP Fit Center  584 is at  -1.342645  0.164538  1.350000
      ESP Fit Center  585 is at  -1.342645  0.164538  1.650000
      ESP Fit Center  586 is at  -1.342645  0.164538  1.950000
      ESP Fit Center  587 is at  -1.342645  0.164538  2.250000
      ESP Fit Center  588 is at  -1.342645  0.464538 -2.250000
      ESP Fit Center  589 is at  -1.342645  0.464538 -1.950000
      ESP Fit Center  590 is at  -1.342645  0.464538 -1.650000
      ESP Fit Center  591 is at  -1.342645  0.464538 -1.350000
      ESP Fit Center  592 is at  -1.342645  0.464538 -1.050000
      ESP Fit Center  593 is at  -1.342645  0.464538 -0.750000
      ESP Fit Center  594 is at  -1.342645  0.464538 -0.450000
      ESP Fit Center  595 is at  -1.342645  0.464538  0.450000
      ESP Fit Center  596 is at  -1.342645  0.464538  0.750000
      ESP Fit Center  597 is at  -1.342645  0.464538  1.050000
      ESP Fit Center  598 is at  -1.342645  0.464538  1.350000
      ESP Fit Center  599 is at  -1.342645  0.464538  1.650000
      ESP Fit Center  600 is at  -1.342645  0.464538  1.950000
      ESP Fit Center  601 is at  -1.342645  0.464538  2.250000
      ESP Fit Center  602 is at  -1.342645  0.764538 -2.250000
      ESP Fit Center  603 is at  -1.342645  0.764538 -1.950000
      ESP Fit Center  604 is at  -1.342645  0.764538 -1.650000
      ESP Fit Center  605 is at  -1.342645  0.764538 -1.350000
      ESP Fit Center  606 is at  -1.342645  0.764538 -1.050000
      ESP Fit Center  607 is at  -1.342645  0.764538 -0.750000
      ESP Fit Center  608 is at  -1.342645  0.764538 -0.450000
      ESP Fit Center  609 is at  -1.342645  0.764538 -0.150000
      ESP Fit Center  610 is at  -1.342645  0.764538  0.150000
      ESP Fit Center  611 is at  -1.342645  0.764538  0.450000
      ESP Fit Center  612 is at  -1.342645  0.764538  0.750000
      ESP Fit Center  613 is at  -1.342645  0.764538  1.050000
      ESP Fit Center  614 is at  -1.342645  0.764538  1.350000
      ESP Fit Center  615 is at  -1.342645  0.764538  1.650000
      ESP Fit Center  616 is at  -1.342645  0.764538  1.950000
      ESP Fit Center  617 is at  -1.342645  0.764538  2.250000
      ESP Fit Center  618 is at  -1.342645  1.064538 -1.950000
      ESP Fit Center  619 is at  -1.342645  1.064538 -1.650000
      ESP Fit Center  620 is at  -1.342645  1.064538 -1.350000
      ESP Fit Center  621 is at  -1.342645  1.064538 -1.050000
      ESP Fit Center  622 is at  -1.342645  1.064538 -0.750000
      ESP Fit Center  623 is at  -1.342645  1.064538 -0.450000
      ESP Fit Center  624 is at  -1.342645  1.064538 -0.150000
      ESP Fit Center  625 is at  -1.342645  1.064538  0.150000
      ESP Fit Center  626 is at  -1.342645  1.064538  0.450000
      ESP Fit Center  627 is at  -1.342645  1.064538  0.750000
      ESP Fit Center  628 is at  -1.342645  1.064538  1.050000
      ESP Fit Center  629 is at  -1.342645  1.064538  1.350000
      ESP Fit Center  630 is at  -1.342645  1.064538  1.650000
      ESP Fit Center  631 is at  -1.342645  1.064538  1.950000
      ESP Fit Center  632 is at  -1.342645  1.364538 -1.950000
      ESP Fit Center  633 is at  -1.342645  1.364538 -1.650000
      ESP Fit Center  634 is at  -1.342645  1.364538 -1.350000
      ESP Fit Center  635 is at  -1.342645  1.364538 -1.050000
      ESP Fit Center  636 is at  -1.342645  1.364538 -0.750000
      ESP Fit Center  637 is at  -1.342645  1.364538 -0.450000
      ESP Fit Center  638 is at  -1.342645  1.364538 -0.150000
      ESP Fit Center  639 is at  -1.342645  1.364538  0.150000
      ESP Fit Center  640 is at  -1.342645  1.364538  0.450000
      ESP Fit Center  641 is at  -1.342645  1.364538  0.750000
      ESP Fit Center  642 is at  -1.342645  1.364538  1.050000
      ESP Fit Center  643 is at  -1.342645  1.364538  1.350000
      ESP Fit Center  644 is at  -1.342645  1.364538  1.650000
      ESP Fit Center  645 is at  -1.342645  1.364538  1.950000
      ESP Fit Center  646 is at  -1.342645  1.664538 -1.650000
      ESP Fit Center  647 is at  -1.342645  1.664538 -1.350000
      ESP Fit Center  648 is at  -1.342645  1.664538 -1.050000
      ESP Fit Center  649 is at  -1.342645  1.664538 -0.750000
      ESP Fit Center  650 is at  -1.342645  1.664538 -0.450000
      ESP Fit Center  651 is at  -1.342645  1.664538 -0.150000
      ESP Fit Center  652 is at  -1.342645  1.664538  0.150000
      ESP Fit Center  653 is at  -1.342645  1.664538  0.450000
      ESP Fit Center  654 is at  -1.342645  1.664538  0.750000
      ESP Fit Center  655 is at  -1.342645  1.664538  1.050000
      ESP Fit Center  656 is at  -1.342645  1.664538  1.350000
      ESP Fit Center  657 is at  -1.342645  1.664538  1.650000
      ESP Fit Center  658 is at  -1.342645  1.964538 -1.350000
      ESP Fit Center  659 is at  -1.342645  1.964538 -1.050000
      ESP Fit Center  660 is at  -1.342645  1.964538 -0.750000
      ESP Fit Center  661 is at  -1.342645  1.964538 -0.450000
      ESP Fit Center  662 is at  -1.342645  1.964538 -0.150000
      ESP Fit Center  663 is at  -1.342645  1.964538  0.150000
      ESP Fit Center  664 is at  -1.342645  1.964538  0.450000
      ESP Fit Center  665 is at  -1.342645  1.964538  0.750000
      ESP Fit Center  666 is at  -1.342645  1.964538  1.050000
      ESP Fit Center  667 is at  -1.342645  1.964538  1.350000
      ESP Fit Center  668 is at  -1.342645  2.264538 -0.750000
      ESP Fit Center  669 is at  -1.342645  2.264538 -0.450000
      ESP Fit Center  670 is at  -1.342645  2.264538 -0.150000
      ESP Fit Center  671 is at  -1.342645  2.264538  0.150000
      ESP Fit Center  672 is at  -1.342645  2.264538  0.450000
      ESP Fit Center  673 is at  -1.342645  2.264538  0.750000
      ESP Fit Center  674 is at  -1.042645 -2.535462 -0.450000
      ESP Fit Center  675 is at  -1.042645 -2.535462 -0.150000
      ESP Fit Center  676 is at  -1.042645 -2.535462  0.150000
      ESP Fit Center  677 is at  -1.042645 -2.535462  0.450000
      ESP Fit Center  678 is at  -1.042645 -2.235462 -1.050000
      ESP Fit Center  679 is at  -1.042645 -2.235462 -0.750000
      ESP Fit Center  680 is at  -1.042645 -2.235462 -0.450000
      ESP Fit Center  681 is at  -1.042645 -2.235462 -0.150000
      ESP Fit Center  682 is at  -1.042645 -2.235462  0.150000
      ESP Fit Center  683 is at  -1.042645 -2.235462  0.450000
      ESP Fit Center  684 is at  -1.042645 -2.235462  0.750000
      ESP Fit Center  685 is at  -1.042645 -2.235462  1.050000
      ESP Fit Center  686 is at  -1.042645 -1.935462 -1.650000
      ESP Fit Center  687 is at  -1.042645 -1.935462 -1.350000
      ESP Fit Center  688 is at  -1.042645 -1.935462 -1.050000
      ESP Fit Center  689 is at  -1.042645 -1.935462 -0.750000
      ESP Fit Center  690 is at  -1.042645 -1.935462 -0.450000
      ESP Fit Center  691 is at  -1.042645 -1.935462 -0.150000
      ESP Fit Center  692 is at  -1.042645 -1.935462  0.150000
      ESP Fit Center  693 is at  -1.042645 -1.935462  0.450000
      ESP Fit Center  694 is at  -1.042645 -1.935462  0.750000
      ESP Fit Center  695 is at  -1.042645 -1.935462  1.050000
      ESP Fit Center  696 is at  -1.042645 -1.935462  1.350000
      ESP Fit Center  697 is at  -1.042645 -1.935462  1.650000
      ESP Fit Center  698 is at  -1.042645 -1.635462 -1.950000
      ESP Fit Center  699 is at  -1.042645 -1.635462 -1.650000
      ESP Fit Center  700 is at  -1.042645 -1.635462 -1.350000
      ESP Fit Center  701 is at  -1.042645 -1.635462 -1.050000
      ESP Fit Center  702 is at  -1.042645 -1.635462 -0.750000
      ESP Fit Center  703 is at  -1.042645 -1.635462 -0.450000
      ESP Fit Center  704 is at  -1.042645 -1.635462 -0.150000
      ESP Fit Center  705 is at  -1.042645 -1.635462  0.150000
      ESP Fit Center  706 is at  -1.042645 -1.635462  0.450000
      ESP Fit Center  707 is at  -1.042645 -1.635462  0.750000
      ESP Fit Center  708 is at  -1.042645 -1.635462  1.050000
      ESP Fit Center  709 is at  -1.042645 -1.635462  1.350000
      ESP Fit Center  710 is at  -1.042645 -1.635462  1.650000
      ESP Fit Center  711 is at  -1.042645 -1.635462  1.950000
      ESP Fit Center  712 is at  -1.042645 -1.335462 -1.950000
      ESP Fit Center  713 is at  -1.042645 -1.335462 -1.650000
      ESP Fit Center  714 is at  -1.042645 -1.335462 -1.350000
      ESP Fit Center  715 is at  -1.042645 -1.335462 -1.050000
      ESP Fit Center  716 is at  -1.042645 -1.335462 -0.750000
      ESP Fit Center  717 is at  -1.042645 -1.335462 -0.450000
      ESP Fit Center  718 is at  -1.042645 -1.335462 -0.150000
      ESP Fit Center  719 is at  -1.042645 -1.335462  0.150000
      ESP Fit Center  720 is at  -1.042645 -1.335462  0.450000
      ESP Fit Center  721 is at  -1.042645 -1.335462  0.750000
      ESP Fit Center  722 is at  -1.042645 -1.335462  1.050000
      ESP Fit Center  723 is at  -1.042645 -1.335462  1.350000
      ESP Fit Center  724 is at  -1.042645 -1.335462  1.650000
      ESP Fit Center  725 is at  -1.042645 -1.335462  1.950000
      ESP Fit Center  726 is at  -1.042645 -1.035462 -2.250000
      ESP Fit Center  727 is at  -1.042645 -1.035462 -1.950000
      ESP Fit Center  728 is at  -1.042645 -1.035462 -1.650000
      ESP Fit Center  729 is at  -1.042645 -1.035462 -1.350000
      ESP Fit Center  730 is at  -1.042645 -1.035462 -1.050000
      ESP Fit Center  731 is at  -1.042645 -1.035462 -0.750000
      ESP Fit Center  732 is at  -1.042645 -1.035462 -0.450000
      ESP Fit Center  733 is at  -1.042645 -1.035462 -0.150000
      ESP Fit Center  734 is at  -1.042645 -1.035462  0.150000
      ESP Fit Center  735 is at  -1.042645 -1.035462  0.450000
      ESP Fit Center  736 is at  -1.042645 -1.035462  0.750000
      ESP Fit Center  737 is at  -1.042645 -1.035462  1.050000
      ESP Fit Center  738 is at  -1.042645 -1.035462  1.350000
      ESP Fit Center  739 is at  -1.042645 -1.035462  1.650000
      ESP Fit Center  740 is at  -1.042645 -1.035462  1.950000
      ESP Fit Center  741 is at  -1.042645 -1.035462  2.250000
      ESP Fit Center  742 is at  -1.042645 -0.735462 -2.250000
      ESP Fit Center  743 is at  -1.042645 -0.735462 -1.950000
      ESP Fit Center  744 is at  -1.042645 -0.735462 -1.650000
      ESP Fit Center  745 is at  -1.042645 -0.735462 -1.350000
      ESP Fit Center  746 is at  -1.042645 -0.735462 -1.050000
      ESP Fit Center  747 is at  -1.042645 -0.735462 -0.750000
      ESP Fit Center  748 is at  -1.042645 -0.735462  0.750000
      ESP Fit Center  749 is at  -1.042645 -0.735462  1.050000
      ESP Fit Center  750 is at  -1.042645 -0.735462  1.350000
      ESP Fit Center  751 is at  -1.042645 -0.735462  1.650000
      ESP Fit Center  752 is at  -1.042645 -0.735462  1.950000
      ESP Fit Center  753 is at  -1.042645 -0.735462  2.250000
      ESP Fit Center  754 is at  -1.042645 -0.435462 -2.550000
      ESP Fit Center  755 is at  -1.042645 -0.435462 -2.250000
      ESP Fit Center  756 is at  -1.042645 -0.435462 -1.950000
      ESP Fit Center  757 is at  -1.042645 -0.435462 -1.650000
      ESP Fit Center  758 is at  -1.042645 -0.435462 -1.350000
      ESP Fit Center  759 is at  -1.042645 -0.435462 -1.050000
      ESP Fit Center  760 is at  -1.042645 -0.435462  1.050000
      ESP Fit Center  761 is at  -1.042645 -0.435462  1.350000
      ESP Fit Center  762 is at  -1.042645 -0.435462  1.650000
      ESP Fit Center  763 is at  -1.042645 -0.435462  1.950000
      ESP Fit Center  764 is at  -1.042645 -0.435462  2.250000
      ESP Fit Center  765 is at  -1.042645 -0.435462  2.550000
      ESP Fit Center  766 is at  -1.042645 -0.135462 -2.550000
      ESP Fit Center  767 is at  -1.042645 -0.135462 -2.250000
      ESP Fit Center  768 is at  -1.042645 -0.135462 -1.950000
      ESP Fit Center  769 is at  -1.042645 -0.135462 -1.650000
      ESP Fit Center  770 is at  -1.042645 -0.135462 -1.350000
      ESP Fit Center  771 is at  -1.042645 -0.135462 -1.050000
      ESP Fit Center  772 is at  -1.042645 -0.135462  1.050000
      ESP Fit Center  773 is at  -1.042645 -0.135462  1.350000
      ESP Fit Center  774 is at  -1.042645 -0.135462  1.650000
      ESP Fit Center  775 is at  -1.042645 -0.135462  1.950000
      ESP Fit Center  776 is at  -1.042645 -0.135462  2.250000
      ESP Fit Center  777 is at  -1.042645 -0.135462  2.550000
      ESP Fit Center  778 is at  -1.042645  0.164538 -2.550000
      ESP Fit Center  779 is at  -1.042645  0.164538 -2.250000
      ESP Fit Center  780 is at  -1.042645  0.164538 -1.950000
      ESP Fit Center  781 is at  -1.042645  0.164538 -1.650000
      ESP Fit Center  782 is at  -1.042645  0.164538 -1.350000
      ESP Fit Center  783 is at  -1.042645  0.164538 -1.050000
      ESP Fit Center  784 is at  -1.042645  0.164538  1.050000
      ESP Fit Center  785 is at  -1.042645  0.164538  1.350000
      ESP Fit Center  786 is at  -1.042645  0.164538  1.650000
      ESP Fit Center  787 is at  -1.042645  0.164538  1.950000
      ESP Fit Center  788 is at  -1.042645  0.164538  2.250000
      ESP Fit Center  789 is at  -1.042645  0.164538  2.550000
      ESP Fit Center  790 is at  -1.042645  0.464538 -2.550000
      ESP Fit Center  791 is at  -1.042645  0.464538 -2.250000
      ESP Fit Center  792 is at  -1.042645  0.464538 -1.950000
      ESP Fit Center  793 is at  -1.042645  0.464538 -1.650000
      ESP Fit Center  794 is at  -1.042645  0.464538 -1.350000
      ESP Fit Center  795 is at  -1.042645  0.464538 -1.050000
      ESP Fit Center  796 is at  -1.042645  0.464538  1.050000
      ESP Fit Center  797 is at  -1.042645  0.464538  1.350000
      ESP Fit Center  798 is at  -1.042645  0.464538  1.650000
      ESP Fit Center  799 is at  -1.042645  0.464538  1.950000
      ESP Fit Center  800 is at  -1.042645  0.464538  2.250000
      ESP Fit Center  801 is at  -1.042645  0.464538  2.550000
      ESP Fit Center  802 is at  -1.042645  0.764538 -2.250000
      ESP Fit Center  803 is at  -1.042645  0.764538 -1.950000
      ESP Fit Center  804 is at  -1.042645  0.764538 -1.650000
      ESP Fit Center  805 is at  -1.042645  0.764538 -1.350000
      ESP Fit Center  806 is at  -1.042645  0.764538 -1.050000
      ESP Fit Center  807 is at  -1.042645  0.764538 -0.750000
      ESP Fit Center  808 is at  -1.042645  0.764538  0.750000
      ESP Fit Center  809 is at  -1.042645  0.764538  1.050000
      ESP Fit Center  810 is at  -1.042645  0.764538  1.350000
      ESP Fit Center  811 is at  -1.042645  0.764538  1.650000
      ESP Fit Center  812 is at  -1.042645  0.764538  1.950000
      ESP Fit Center  813 is at  -1.042645  0.764538  2.250000
      ESP Fit Center  814 is at  -1.042645  1.064538 -2.250000
      ESP Fit Center  815 is at  -1.042645  1.064538 -1.950000
      ESP Fit Center  816 is at  -1.042645  1.064538 -1.650000
      ESP Fit Center  817 is at  -1.042645  1.064538 -1.350000
      ESP Fit Center  818 is at  -1.042645  1.064538 -1.050000
      ESP Fit Center  819 is at  -1.042645  1.064538 -0.750000
      ESP Fit Center  820 is at  -1.042645  1.064538 -0.450000
      ESP Fit Center  821 is at  -1.042645  1.064538 -0.150000
      ESP Fit Center  822 is at  -1.042645  1.064538  0.150000
      ESP Fit Center  823 is at  -1.042645  1.064538  0.450000
      ESP Fit Center  824 is at  -1.042645  1.064538  0.750000
      ESP Fit Center  825 is at  -1.042645  1.064538  1.050000
      ESP Fit Center  826 is at  -1.042645  1.064538  1.350000
      ESP Fit Center  827 is at  -1.042645  1.064538  1.650000
      ESP Fit Center  828 is at  -1.042645  1.064538  1.950000
      ESP Fit Center  829 is at  -1.042645  1.064538  2.250000
      ESP Fit Center  830 is at  -1.042645  1.364538 -1.950000
      ESP Fit Center  831 is at  -1.042645  1.364538 -1.650000
      ESP Fit Center  832 is at  -1.042645  1.364538 -1.350000
      ESP Fit Center  833 is at  -1.042645  1.364538 -1.050000
      ESP Fit Center  834 is at  -1.042645  1.364538 -0.750000
      ESP Fit Center  835 is at  -1.042645  1.364538 -0.450000
      ESP Fit Center  836 is at  -1.042645  1.364538 -0.150000
      ESP Fit Center  837 is at  -1.042645  1.364538  0.150000
      ESP Fit Center  838 is at  -1.042645  1.364538  0.450000
      ESP Fit Center  839 is at  -1.042645  1.364538  0.750000
      ESP Fit Center  840 is at  -1.042645  1.364538  1.050000
      ESP Fit Center  841 is at  -1.042645  1.364538  1.350000
      ESP Fit Center  842 is at  -1.042645  1.364538  1.650000
      ESP Fit Center  843 is at  -1.042645  1.364538  1.950000
      ESP Fit Center  844 is at  -1.042645  1.664538 -1.950000
      ESP Fit Center  845 is at  -1.042645  1.664538 -1.650000
      ESP Fit Center  846 is at  -1.042645  1.664538 -1.350000
      ESP Fit Center  847 is at  -1.042645  1.664538 -1.050000
      ESP Fit Center  848 is at  -1.042645  1.664538 -0.750000
      ESP Fit Center  849 is at  -1.042645  1.664538 -0.450000
      ESP Fit Center  850 is at  -1.042645  1.664538 -0.150000
      ESP Fit Center  851 is at  -1.042645  1.664538  0.150000
      ESP Fit Center  852 is at  -1.042645  1.664538  0.450000
      ESP Fit Center  853 is at  -1.042645  1.664538  0.750000
      ESP Fit Center  854 is at  -1.042645  1.664538  1.050000
      ESP Fit Center  855 is at  -1.042645  1.664538  1.350000
      ESP Fit Center  856 is at  -1.042645  1.664538  1.650000
      ESP Fit Center  857 is at  -1.042645  1.664538  1.950000
      ESP Fit Center  858 is at  -1.042645  1.964538 -1.650000
      ESP Fit Center  859 is at  -1.042645  1.964538 -1.350000
      ESP Fit Center  860 is at  -1.042645  1.964538 -1.050000
      ESP Fit Center  861 is at  -1.042645  1.964538 -0.750000
      ESP Fit Center  862 is at  -1.042645  1.964538 -0.450000
      ESP Fit Center  863 is at  -1.042645  1.964538 -0.150000
      ESP Fit Center  864 is at  -1.042645  1.964538  0.150000
      ESP Fit Center  865 is at  -1.042645  1.964538  0.450000
      ESP Fit Center  866 is at  -1.042645  1.964538  0.750000
      ESP Fit Center  867 is at  -1.042645  1.964538  1.050000
      ESP Fit Center  868 is at  -1.042645  1.964538  1.350000
      ESP Fit Center  869 is at  -1.042645  1.964538  1.650000
      ESP Fit Center  870 is at  -1.042645  2.264538 -1.050000
      ESP Fit Center  871 is at  -1.042645  2.264538 -0.750000
      ESP Fit Center  872 is at  -1.042645  2.264538 -0.450000
      ESP Fit Center  873 is at  -1.042645  2.264538 -0.150000
      ESP Fit Center  874 is at  -1.042645  2.264538  0.150000
      ESP Fit Center  875 is at  -1.042645  2.264538  0.450000
      ESP Fit Center  876 is at  -1.042645  2.264538  0.750000
      ESP Fit Center  877 is at  -1.042645  2.264538  1.050000
      ESP Fit Center  878 is at  -1.042645  2.564538 -0.150000
      ESP Fit Center  879 is at  -1.042645  2.564538  0.150000
      ESP Fit Center  880 is at  -0.742645 -2.535462 -0.750000
      ESP Fit Center  881 is at  -0.742645 -2.535462 -0.450000
      ESP Fit Center  882 is at  -0.742645 -2.535462 -0.150000
      ESP Fit Center  883 is at  -0.742645 -2.535462  0.150000
      ESP Fit Center  884 is at  -0.742645 -2.535462  0.450000
      ESP Fit Center  885 is at  -0.742645 -2.535462  0.750000
      ESP Fit Center  886 is at  -0.742645 -2.235462 -1.350000
      ESP Fit Center  887 is at  -0.742645 -2.235462 -1.050000
      ESP Fit Center  888 is at  -0.742645 -2.235462 -0.750000
      ESP Fit Center  889 is at  -0.742645 -2.235462 -0.450000
      ESP Fit Center  890 is at  -0.742645 -2.235462 -0.150000
      ESP Fit Center  891 is at  -0.742645 -2.235462  0.150000
      ESP Fit Center  892 is at  -0.742645 -2.235462  0.450000
      ESP Fit Center  893 is at  -0.742645 -2.235462  0.750000
      ESP Fit Center  894 is at  -0.742645 -2.235462  1.050000
      ESP Fit Center  895 is at  -0.742645 -2.235462  1.350000
      ESP Fit Center  896 is at  -0.742645 -1.935462 -1.650000
      ESP Fit Center  897 is at  -0.742645 -1.935462 -1.350000
      ESP Fit Center  898 is at  -0.742645 -1.935462 -1.050000
      ESP Fit Center  899 is at  -0.742645 -1.935462 -0.750000
      ESP Fit Center  900 is at  -0.742645 -1.935462 -0.450000
      ESP Fit Center  901 is at  -0.742645 -1.935462 -0.150000
      ESP Fit Center  902 is at  -0.742645 -1.935462  0.150000
      ESP Fit Center  903 is at  -0.742645 -1.935462  0.450000
      ESP Fit Center  904 is at  -0.742645 -1.935462  0.750000
      ESP Fit Center  905 is at  -0.742645 -1.935462  1.050000
      ESP Fit Center  906 is at  -0.742645 -1.935462  1.350000
      ESP Fit Center  907 is at  -0.742645 -1.935462  1.650000
      ESP Fit Center  908 is at  -0.742645 -1.635462 -1.950000
      ESP Fit Center  909 is at  -0.742645 -1.635462 -1.650000
      ESP Fit Center  910 is at  -0.742645 -1.635462 -1.350000
      ESP Fit Center  911 is at  -0.742645 -1.635462 -1.050000
      ESP Fit Center  912 is at  -0.742645 -1.635462 -0.750000
      ESP Fit Center  913 is at  -0.742645 -1.635462 -0.450000
      ESP Fit Center  914 is at  -0.742645 -1.635462 -0.150000
      ESP Fit Center  915 is at  -0.742645 -1.635462  0.150000
      ESP Fit Center  916 is at  -0.742645 -1.635462  0.450000
      ESP Fit Center  917 is at  -0.742645 -1.635462  0.750000
      ESP Fit Center  918 is at  -0.742645 -1.635462  1.050000
      ESP Fit Center  919 is at  -0.742645 -1.635462  1.350000
      ESP Fit Center  920 is at  -0.742645 -1.635462  1.650000
      ESP Fit Center  921 is at  -0.742645 -1.635462  1.950000
      ESP Fit Center  922 is at  -0.742645 -1.335462 -2.250000
      ESP Fit Center  923 is at  -0.742645 -1.335462 -1.950000
      ESP Fit Center  924 is at  -0.742645 -1.335462 -1.650000
      ESP Fit Center  925 is at  -0.742645 -1.335462 -1.350000
      ESP Fit Center  926 is at  -0.742645 -1.335462 -1.050000
      ESP Fit Center  927 is at  -0.742645 -1.335462 -0.750000
      ESP Fit Center  928 is at  -0.742645 -1.335462 -0.450000
      ESP Fit Center  929 is at  -0.742645 -1.335462 -0.150000
      ESP Fit Center  930 is at  -0.742645 -1.335462  0.150000
      ESP Fit Center  931 is at  -0.742645 -1.335462  0.450000
      ESP Fit Center  932 is at  -0.742645 -1.335462  0.750000
      ESP Fit Center  933 is at  -0.742645 -1.335462  1.050000
      ESP Fit Center  934 is at  -0.742645 -1.335462  1.350000
      ESP Fit Center  935 is at  -0.742645 -1.335462  1.650000
      ESP Fit Center  936 is at  -0.742645 -1.335462  1.950000
      ESP Fit Center  937 is at  -0.742645 -1.335462  2.250000
      ESP Fit Center  938 is at  -0.742645 -1.035462 -2.250000
      ESP Fit Center  939 is at  -0.742645 -1.035462 -1.950000
      ESP Fit Center  940 is at  -0.742645 -1.035462 -1.650000
      ESP Fit Center  941 is at  -0.742645 -1.035462 -1.350000
      ESP Fit Center  942 is at  -0.742645 -1.035462 -1.050000
      ESP Fit Center  943 is at  -0.742645 -1.035462 -0.750000
      ESP Fit Center  944 is at  -0.742645 -1.035462  0.750000
      ESP Fit Center  945 is at  -0.742645 -1.035462  1.050000
      ESP Fit Center  946 is at  -0.742645 -1.035462  1.350000
      ESP Fit Center  947 is at  -0.742645 -1.035462  1.650000
      ESP Fit Center  948 is at  -0.742645 -1.035462  1.950000
      ESP Fit Center  949 is at  -0.742645 -1.035462  2.250000
      ESP Fit Center  950 is at  -0.742645 -0.735462 -2.550000
      ESP Fit Center  951 is at  -0.742645 -0.735462 -2.250000
      ESP Fit Center  952 is at  -0.742645 -0.735462 -1.950000
      ESP Fit Center  953 is at  -0.742645 -0.735462 -1.650000
      ESP Fit Center  954 is at  -0.742645 -0.735462 -1.350000
      ESP Fit Center  955 is at  -0.742645 -0.735462 -1.050000
      ESP Fit Center  956 is at  -0.742645 -0.735462  1.050000
      ESP Fit Center  957 is at  -0.742645 -0.735462  1.350000
      ESP Fit Center  958 is at  -0.742645 -0.735462  1.650000
      ESP Fit Center  959 is at  -0.742645 -0.735462  1.950000
      ESP Fit Center  960 is at  -0.742645 -0.735462  2.250000
      ESP Fit Center  961 is at  -0.742645 -0.735462  2.550000
      ESP Fit Center  962 is at  -0.742645 -0.435462 -2.550000
      ESP Fit Center  963 is at  -0.742645 -0.435462 -2.250000
      ESP Fit Center  964 is at  -0.742645 -0.435462 -1.950000
      ESP Fit Center  965 is at  -0.742645 -0.435462 -1.650000
      ESP Fit Center  966 is at  -0.742645 -0.435462 -1.350000
      ESP Fit Center  967 is at  -0.742645 -0.435462  1.350000
      ESP Fit Center  968 is at  -0.742645 -0.435462  1.650000
      ESP Fit Center  969 is at  -0.742645 -0.435462  1.950000
      ESP Fit Center  970 is at  -0.742645 -0.435462  2.250000
      ESP Fit Center  971 is at  -0.742645 -0.435462  2.550000
      ESP Fit Center  972 is at  -0.742645 -0.135462 -2.550000
      ESP Fit Center  973 is at  -0.742645 -0.135462 -2.250000
      ESP Fit Center  974 is at  -0.742645 -0.135462 -1.950000
      ESP Fit Center  975 is at  -0.742645 -0.135462 -1.650000
      ESP Fit Center  976 is at  -0.742645 -0.135462 -1.350000
      ESP Fit Center  977 is at  -0.742645 -0.135462  1.350000
      ESP Fit Center  978 is at  -0.742645 -0.135462  1.650000
      ESP Fit Center  979 is at  -0.742645 -0.135462  1.950000
      ESP Fit Center  980 is at  -0.742645 -0.135462  2.250000
      ESP Fit Center  981 is at  -0.742645 -0.135462  2.550000
      ESP Fit Center  982 is at  -0.742645  0.164538 -2.550000
      ESP Fit Center  983 is at  -0.742645  0.164538 -2.250000
      ESP Fit Center  984 is at  -0.742645  0.164538 -1.950000
      ESP Fit Center  985 is at  -0.742645  0.164538 -1.650000
      ESP Fit Center  986 is at  -0.742645  0.164538 -1.350000
      ESP Fit Center  987 is at  -0.742645  0.164538  1.350000
      ESP Fit Center  988 is at  -0.742645  0.164538  1.650000
      ESP Fit Center  989 is at  -0.742645  0.164538  1.950000
      ESP Fit Center  990 is at  -0.742645  0.164538  2.250000
      ESP Fit Center  991 is at  -0.742645  0.164538  2.550000
      ESP Fit Center  992 is at  -0.742645  0.464538 -2.550000
      ESP Fit Center  993 is at  -0.742645  0.464538 -2.250000
      ESP Fit Center  994 is at  -0.742645  0.464538 -1.950000
      ESP Fit Center  995 is at  -0.742645  0.464538 -1.650000
      ESP Fit Center  996 is at  -0.742645  0.464538 -1.350000
      ESP Fit Center  997 is at  -0.742645  0.464538  1.350000
      ESP Fit Center  998 is at  -0.742645  0.464538  1.650000
      ESP Fit Center  999 is at  -0.742645  0.464538  1.950000
      ESP Fit Center 1000 is at  -0.742645  0.464538  2.250000
      ESP Fit Center 1001 is at  -0.742645  0.464538  2.550000
      ESP Fit Center 1002 is at  -0.742645  0.764538 -2.550000
      ESP Fit Center 1003 is at  -0.742645  0.764538 -2.250000
      ESP Fit Center 1004 is at  -0.742645  0.764538 -1.950000
      ESP Fit Center 1005 is at  -0.742645  0.764538 -1.650000
      ESP Fit Center 1006 is at  -0.742645  0.764538 -1.350000
      ESP Fit Center 1007 is at  -0.742645  0.764538 -1.050000
      ESP Fit Center 1008 is at  -0.742645  0.764538  1.050000
      ESP Fit Center 1009 is at  -0.742645  0.764538  1.350000
      ESP Fit Center 1010 is at  -0.742645  0.764538  1.650000
      ESP Fit Center 1011 is at  -0.742645  0.764538  1.950000
      ESP Fit Center 1012 is at  -0.742645  0.764538  2.250000
      ESP Fit Center 1013 is at  -0.742645  0.764538  2.550000
      ESP Fit Center 1014 is at  -0.742645  1.064538 -2.250000
      ESP Fit Center 1015 is at  -0.742645  1.064538 -1.950000
      ESP Fit Center 1016 is at  -0.742645  1.064538 -1.650000
      ESP Fit Center 1017 is at  -0.742645  1.064538 -1.350000
      ESP Fit Center 1018 is at  -0.742645  1.064538 -1.050000
      ESP Fit Center 1019 is at  -0.742645  1.064538 -0.750000
      ESP Fit Center 1020 is at  -0.742645  1.064538  0.750000
      ESP Fit Center 1021 is at  -0.742645  1.064538  1.050000
      ESP Fit Center 1022 is at  -0.742645  1.064538  1.350000
      ESP Fit Center 1023 is at  -0.742645  1.064538  1.650000
      ESP Fit Center 1024 is at  -0.742645  1.064538  1.950000
      ESP Fit Center 1025 is at  -0.742645  1.064538  2.250000
      ESP Fit Center 1026 is at  -0.742645  1.364538 -2.250000
      ESP Fit Center 1027 is at  -0.742645  1.364538 -1.950000
      ESP Fit Center 1028 is at  -0.742645  1.364538 -1.650000
      ESP Fit Center 1029 is at  -0.742645  1.364538 -1.350000
      ESP Fit Center 1030 is at  -0.742645  1.364538 -1.050000
      ESP Fit Center 1031 is at  -0.742645  1.364538 -0.750000
      ESP Fit Center 1032 is at  -0.742645  1.364538 -0.450000
      ESP Fit Center 1033 is at  -0.742645  1.364538 -0.150000
      ESP Fit Center 1034 is at  -0.742645  1.364538  0.150000
      ESP Fit Center 1035 is at  -0.742645  1.364538  0.450000
      ESP Fit Center 1036 is at  -0.742645  1.364538  0.750000
      ESP Fit Center 1037 is at  -0.742645  1.364538  1.050000
      ESP Fit Center 1038 is at  -0.742645  1.364538  1.350000
      ESP Fit Center 1039 is at  -0.742645  1.364538  1.650000
      ESP Fit Center 1040 is at  -0.742645  1.364538  1.950000
      ESP Fit Center 1041 is at  -0.742645  1.364538  2.250000
      ESP Fit Center 1042 is at  -0.742645  1.664538 -1.950000
      ESP Fit Center 1043 is at  -0.742645  1.664538 -1.650000
      ESP Fit Center 1044 is at  -0.742645  1.664538 -1.350000
      ESP Fit Center 1045 is at  -0.742645  1.664538 -1.050000
      ESP Fit Center 1046 is at  -0.742645  1.664538 -0.750000
      ESP Fit Center 1047 is at  -0.742645  1.664538 -0.450000
      ESP Fit Center 1048 is at  -0.742645  1.664538 -0.150000
      ESP Fit Center 1049 is at  -0.742645  1.664538  0.150000
      ESP Fit Center 1050 is at  -0.742645  1.664538  0.450000
      ESP Fit Center 1051 is at  -0.742645  1.664538  0.750000
      ESP Fit Center 1052 is at  -0.742645  1.664538  1.050000
      ESP Fit Center 1053 is at  -0.742645  1.664538  1.350000
      ESP Fit Center 1054 is at  -0.742645  1.664538  1.650000
      ESP Fit Center 1055 is at  -0.742645  1.664538  1.950000
      ESP Fit Center 1056 is at  -0.742645  1.964538 -1.650000
      ESP Fit Center 1057 is at  -0.742645  1.964538 -1.350000
      ESP Fit Center 1058 is at  -0.742645  1.964538 -1.050000
      ESP Fit Center 1059 is at  -0.742645  1.964538 -0.750000
      ESP Fit Center 1060 is at  -0.742645  1.964538 -0.450000
      ESP Fit Center 1061 is at  -0.742645  1.964538 -0.150000
      ESP Fit Center 1062 is at  -0.742645  1.964538  0.150000
      ESP Fit Center 1063 is at  -0.742645  1.964538  0.450000
      ESP Fit Center 1064 is at  -0.742645  1.964538  0.750000
      ESP Fit Center 1065 is at  -0.742645  1.964538  1.050000
      ESP Fit Center 1066 is at  -0.742645  1.964538  1.350000
      ESP Fit Center 1067 is at  -0.742645  1.964538  1.650000
      ESP Fit Center 1068 is at  -0.742645  2.264538 -1.350000
      ESP Fit Center 1069 is at  -0.742645  2.264538 -1.050000
      ESP Fit Center 1070 is at  -0.742645  2.264538 -0.750000
      ESP Fit Center 1071 is at  -0.742645  2.264538 -0.450000
      ESP Fit Center 1072 is at  -0.742645  2.264538 -0.150000
      ESP Fit Center 1073 is at  -0.742645  2.264538  0.150000
      ESP Fit Center 1074 is at  -0.742645  2.264538  0.450000
      ESP Fit Center 1075 is at  -0.742645  2.264538  0.750000
      ESP Fit Center 1076 is at  -0.742645  2.264538  1.050000
      ESP Fit Center 1077 is at  -0.742645  2.264538  1.350000
      ESP Fit Center 1078 is at  -0.742645  2.564538 -1.050000
      ESP Fit Center 1079 is at  -0.742645  2.564538 -0.750000
      ESP Fit Center 1080 is at  -0.742645  2.564538 -0.450000
      ESP Fit Center 1081 is at  -0.742645  2.564538 -0.150000
      ESP Fit Center 1082 is at  -0.742645  2.564538  0.150000
      ESP Fit Center 1083 is at  -0.742645  2.564538  0.450000
      ESP Fit Center 1084 is at  -0.742645  2.564538  0.750000
      ESP Fit Center 1085 is at  -0.742645  2.564538  1.050000
      ESP Fit Center 1086 is at  -0.742645  2.864538 -0.450000
      ESP Fit Center 1087 is at  -0.742645  2.864538 -0.150000
      ESP Fit Center 1088 is at  -0.742645  2.864538  0.150000
      ESP Fit Center 1089 is at  -0.742645  2.864538  0.450000
      ESP Fit Center 1090 is at  -0.442645 -2.535462 -1.050000
      ESP Fit Center 1091 is at  -0.442645 -2.535462 -0.750000
      ESP Fit Center 1092 is at  -0.442645 -2.535462 -0.450000
      ESP Fit Center 1093 is at  -0.442645 -2.535462 -0.150000
      ESP Fit Center 1094 is at  -0.442645 -2.535462  0.150000
      ESP Fit Center 1095 is at  -0.442645 -2.535462  0.450000
      ESP Fit Center 1096 is at  -0.442645 -2.535462  0.750000
      ESP Fit Center 1097 is at  -0.442645 -2.535462  1.050000
      ESP Fit Center 1098 is at  -0.442645 -2.235462 -1.350000
      ESP Fit Center 1099 is at  -0.442645 -2.235462 -1.050000
      ESP Fit Center 1100 is at  -0.442645 -2.235462 -0.750000
      ESP Fit Center 1101 is at  -0.442645 -2.235462 -0.450000
      ESP Fit Center 1102 is at  -0.442645 -2.235462 -0.150000
      ESP Fit Center 1103 is at  -0.442645 -2.235462  0.150000
      ESP Fit Center 1104 is at  -0.442645 -2.235462  0.450000
      ESP Fit Center 1105 is at  -0.442645 -2.235462  0.750000
      ESP Fit Center 1106 is at  -0.442645 -2.235462  1.050000
      ESP Fit Center 1107 is at  -0.442645 -2.235462  1.350000
      ESP Fit Center 1108 is at  -0.442645 -1.935462 -1.950000
      ESP Fit Center 1109 is at  -0.442645 -1.935462 -1.650000
      ESP Fit Center 1110 is at  -0.442645 -1.935462 -1.350000
      ESP Fit Center 1111 is at  -0.442645 -1.935462 -1.050000
      ESP Fit Center 1112 is at  -0.442645 -1.935462 -0.750000
      ESP Fit Center 1113 is at  -0.442645 -1.935462 -0.450000
      ESP Fit Center 1114 is at  -0.442645 -1.935462 -0.150000
      ESP Fit Center 1115 is at  -0.442645 -1.935462  0.150000
      ESP Fit Center 1116 is at  -0.442645 -1.935462  0.450000
      ESP Fit Center 1117 is at  -0.442645 -1.935462  0.750000
      ESP Fit Center 1118 is at  -0.442645 -1.935462  1.050000
      ESP Fit Center 1119 is at  -0.442645 -1.935462  1.350000
      ESP Fit Center 1120 is at  -0.442645 -1.935462  1.650000
      ESP Fit Center 1121 is at  -0.442645 -1.935462  1.950000
      ESP Fit Center 1122 is at  -0.442645 -1.635462 -1.950000
      ESP Fit Center 1123 is at  -0.442645 -1.635462 -1.650000
      ESP Fit Center 1124 is at  -0.442645 -1.635462 -1.350000
      ESP Fit Center 1125 is at  -0.442645 -1.635462 -1.050000
      ESP Fit Center 1126 is at  -0.442645 -1.635462 -0.750000
      ESP Fit Center 1127 is at  -0.442645 -1.635462 -0.450000
      ESP Fit Center 1128 is at  -0.442645 -1.635462 -0.150000
      ESP Fit Center 1129 is at  -0.442645 -1.635462  0.150000
      ESP Fit Center 1130 is at  -0.442645 -1.635462  0.450000
      ESP Fit Center 1131 is at  -0.442645 -1.635462  0.750000
      ESP Fit Center 1132 is at  -0.442645 -1.635462  1.050000
      ESP Fit Center 1133 is at  -0.442645 -1.635462  1.350000
      ESP Fit Center 1134 is at  -0.442645 -1.635462  1.650000
      ESP Fit Center 1135 is at  -0.442645 -1.635462  1.950000
      ESP Fit Center 1136 is at  -0.442645 -1.335462 -2.250000
      ESP Fit Center 1137 is at  -0.442645 -1.335462 -1.950000
      ESP Fit Center 1138 is at  -0.442645 -1.335462 -1.650000
      ESP Fit Center 1139 is at  -0.442645 -1.335462 -1.350000
      ESP Fit Center 1140 is at  -0.442645 -1.335462 -1.050000
      ESP Fit Center 1141 is at  -0.442645 -1.335462 -0.750000
      ESP Fit Center 1142 is at  -0.442645 -1.335462 -0.450000
      ESP Fit Center 1143 is at  -0.442645 -1.335462  0.450000
      ESP Fit Center 1144 is at  -0.442645 -1.335462  0.750000
      ESP Fit Center 1145 is at  -0.442645 -1.335462  1.050000
      ESP Fit Center 1146 is at  -0.442645 -1.335462  1.350000
      ESP Fit Center 1147 is at  -0.442645 -1.335462  1.650000
      ESP Fit Center 1148 is at  -0.442645 -1.335462  1.950000
      ESP Fit Center 1149 is at  -0.442645 -1.335462  2.250000
      ESP Fit Center 1150 is at  -0.442645 -1.035462 -2.550000
      ESP Fit Center 1151 is at  -0.442645 -1.035462 -2.250000
      ESP Fit Center 1152 is at  -0.442645 -1.035462 -1.950000
      ESP Fit Center 1153 is at  -0.442645 -1.035462 -1.650000
      ESP Fit Center 1154 is at  -0.442645 -1.035462 -1.350000
      ESP Fit Center 1155 is at  -0.442645 -1.035462 -1.050000
      ESP Fit Center 1156 is at  -0.442645 -1.035462  1.050000
      ESP Fit Center 1157 is at  -0.442645 -1.035462  1.350000
      ESP Fit Center 1158 is at  -0.442645 -1.035462  1.650000
      ESP Fit Center 1159 is at  -0.442645 -1.035462  1.950000
      ESP Fit Center 1160 is at  -0.442645 -1.035462  2.250000
      ESP Fit Center 1161 is at  -0.442645 -1.035462  2.550000
      ESP Fit Center 1162 is at  -0.442645 -0.735462 -2.550000
      ESP Fit Center 1163 is at  -0.442645 -0.735462 -2.250000
      ESP Fit Center 1164 is at  -0.442645 -0.735462 -1.950000
      ESP Fit Center 1165 is at  -0.442645 -0.735462 -1.650000
      ESP Fit Center 1166 is at  -0.442645 -0.735462 -1.350000
      ESP Fit Center 1167 is at  -0.442645 -0.735462  1.350000
      ESP Fit Center 1168 is at  -0.442645 -0.735462  1.650000
      ESP Fit Center 1169 is at  -0.442645 -0.735462  1.950000
      ESP Fit Center 1170 is at  -0.442645 -0.735462  2.250000
      ESP Fit Center 1171 is at  -0.442645 -0.735462  2.550000
      ESP Fit Center 1172 is at  -0.442645 -0.435462 -2.550000
[...]
 3218 Fit       0.021818
 3219 Fit       0.024706
 3220 Fit       0.026374
 3221 Fit       0.026374
 3222 Fit       0.024706
 3223 Fit       0.021818
 3224 Fit       0.018357
 3225 Fit       0.014892
 3226 Fit       0.011779
 3227 Fit       0.009168
 3228 Fit       0.011226
 3229 Fit       0.013623
 3230 Fit       0.016151
 3231 Fit       0.018550
 3232 Fit       0.020468
 3233 Fit       0.021544
 3234 Fit       0.021544
 3235 Fit       0.020468
 3236 Fit       0.018550
 3237 Fit       0.016151
 3238 Fit       0.013623
 3239 Fit       0.011226
 3240 Fit       0.014129
 3241 Fit       0.015815
 3242 Fit       0.017119
 3243 Fit       0.017836
 3244 Fit       0.017836
 3245 Fit       0.017119
 3246 Fit       0.015815
 3247 Fit       0.014129
 3248 Fit       0.014477
 3249 Fit       0.014968
 3250 Fit       0.014968
 3251 Fit       0.014477
 3252 Fit      -0.029041
 3253 Fit      -0.029812
 3254 Fit      -0.029812
 3255 Fit      -0.029041
 3256 Fit      -0.029672
 3257 Fit      -0.032313
 3258 Fit      -0.034290
 3259 Fit      -0.035351
 3260 Fit      -0.035351
 3261 Fit      -0.034290
 3262 Fit      -0.032313
 3263 Fit      -0.029672
 3264 Fit      -0.030177
 3265 Fit      -0.034102
 3266 Fit      -0.037613
 3267 Fit      -0.040281
 3268 Fit      -0.041726
 3269 Fit      -0.041726
 3270 Fit      -0.040281
 3271 Fit      -0.037613
 3272 Fit      -0.034102
 3273 Fit      -0.030177
 3274 Fit      -0.028678
 3275 Fit      -0.033577
 3276 Fit      -0.038551
 3277 Fit      -0.043088
 3278 Fit      -0.046576
 3279 Fit      -0.048474
 3280 Fit      -0.048474
 3281 Fit      -0.046576
 3282 Fit      -0.043088
 3283 Fit      -0.038551
 3284 Fit      -0.033577
 3285 Fit      -0.028678
 3286 Fit      -0.025323
 3287 Fit      -0.030506
 3288 Fit      -0.036294
 3289 Fit      -0.042288
 3290 Fit      -0.047816
 3291 Fit      -0.052062
 3292 Fit      -0.054354
 3293 Fit      -0.054354
 3294 Fit      -0.052062
 3295 Fit      -0.047816
 3296 Fit      -0.042288
 3297 Fit      -0.036294
 3298 Fit      -0.030506
 3299 Fit      -0.025323
 3300 Fit      -0.025535
 3301 Fit      -0.031147
 3302 Fit      -0.037514
 3303 Fit      -0.044158
 3304 Fit      -0.050226
 3305 Fit      -0.054747
 3306 Fit      -0.057089
 3307 Fit      -0.057089
 3308 Fit      -0.054747
 3309 Fit      -0.050226
 3310 Fit      -0.044158
 3311 Fit      -0.037514
 3312 Fit      -0.031147
 3313 Fit      -0.025535
 3314 Fit      -0.019844
 3315 Fit      -0.024477
 3316 Fit      -0.030038
 3317 Fit      -0.036346
 3318 Fit      -0.042824
 3319 Fit      -0.048458
 3320 Fit      -0.052263
 3321 Fit      -0.052263
 3322 Fit      -0.048458
 3323 Fit      -0.042824
 3324 Fit      -0.036346
 3325 Fit      -0.030038
 3326 Fit      -0.024477
 3327 Fit      -0.019844
 3328 Fit      -0.017850
 3329 Fit      -0.021965
 3330 Fit      -0.026836
 3331 Fit      -0.032212
 3332 Fit      -0.037408
 3333 Fit      -0.041358
 3334 Fit      -0.041358
 3335 Fit      -0.037408
 3336 Fit      -0.032212
 3337 Fit      -0.026836
 3338 Fit      -0.021965
 3339 Fit      -0.017850
 3340 Fit      -0.014925
 3341 Fit      -0.018091
 3342 Fit      -0.021654
 3343 Fit      -0.025256
 3344 Fit      -0.028158
 3345 Fit      -0.029430
 3346 Fit      -0.029430
 3347 Fit      -0.028158
 3348 Fit      -0.025256
 3349 Fit      -0.021654
 3350 Fit      -0.018091
 3351 Fit      -0.014925
 3352 Fit      -0.011333
 3353 Fit      -0.013264
 3354 Fit      -0.015125
 3355 Fit      -0.016461
 3356 Fit      -0.016559
 3357 Fit      -0.014782
 3358 Fit      -0.011481
 3359 Fit      -0.011481
 3360 Fit      -0.014782
 3361 Fit      -0.016559
 3362 Fit      -0.016461
 3363 Fit      -0.015125
 3364 Fit      -0.013264
 3365 Fit      -0.011333
 3366 Fit      -0.007466
 3367 Fit      -0.008102
 3368 Fit      -0.008226
 3369 Fit      -0.007334
 3370 Fit      -0.004808
 3371 Fit      -0.000343
 3372 Fit      -0.000343
 3373 Fit      -0.004808
 3374 Fit      -0.007334
 3375 Fit      -0.008226
 3376 Fit      -0.008102
 3377 Fit      -0.007466
 3378 Fit      -0.003739
 3379 Fit      -0.003246
 3380 Fit      -0.001938
 3381 Fit       0.000659
 3382 Fit       0.005005
 3383 Fit       0.011109
 3384 Fit       0.011109
 3385 Fit       0.005005
 3386 Fit       0.000659
 3387 Fit      -0.001938
 3388 Fit      -0.003246
 3389 Fit      -0.003739
 3390 Fit      -0.000484
 3391 Fit       0.000826
 3392 Fit       0.003061
 3393 Fit       0.006593
 3394 Fit       0.011680
 3395 Fit       0.018092
 3396 Fit       0.024595
 3397 Fit       0.024595
 3398 Fit       0.018092
 3399 Fit       0.011680
 3400 Fit       0.006593
 3401 Fit       0.003061
 3402 Fit       0.000826
 3403 Fit      -0.000484
 3404 Fit       0.002110
 3405 Fit       0.003884
 3406 Fit       0.006531
 3407 Fit       0.010278
 3408 Fit       0.015192
 3409 Fit       0.020902
 3410 Fit       0.026318
 3411 Fit       0.029735
 3412 Fit       0.029735
 3413 Fit       0.026318
 3414 Fit       0.020902
 3415 Fit       0.015192
 3416 Fit       0.010278
 3417 Fit       0.006531
 3418 Fit       0.003884
 3419 Fit       0.002110
 3420 Fit       0.005936
 3421 Fit       0.008594
 3422 Fit       0.012072
 3423 Fit       0.016303
 3424 Fit       0.020887
 3425 Fit       0.024982
 3426 Fit       0.027459
 3427 Fit       0.027459
 3428 Fit       0.024982
 3429 Fit       0.020887
 3430 Fit       0.016303
 3431 Fit       0.012072
 3432 Fit       0.008594
 3433 Fit       0.005936
 3434 Fit       0.007135
 3435 Fit       0.009565
 3436 Fit       0.012545
 3437 Fit       0.015945
 3438 Fit       0.019415
 3439 Fit       0.022359
 3440 Fit       0.024078
 3441 Fit       0.024078
 3442 Fit       0.022359
 3443 Fit       0.019415
 3444 Fit       0.015945
 3445 Fit       0.012545
 3446 Fit       0.009565
 3447 Fit       0.007135
 3448 Fit       0.009788
 3449 Fit       0.012222
 3450 Fit       0.014854
 3451 Fit       0.017407
 3452 Fit       0.019484
 3453 Fit       0.020662
 3454 Fit       0.020662
 3455 Fit       0.019484
 3456 Fit       0.017407
 3457 Fit       0.014854
 3458 Fit       0.012222
 3459 Fit       0.009788
 3460 Fit       0.011488
 3461 Fit       0.013489
 3462 Fit       0.015351
 3463 Fit       0.016815
 3464 Fit       0.017627
 3465 Fit       0.017627
 3466 Fit       0.016815
 3467 Fit       0.015351
 3468 Fit       0.013489
 3469 Fit       0.011488
 3470 Fit       0.013459
 3471 Fit       0.014501
 3472 Fit       0.015069
 3473 Fit       0.015069
 3474 Fit       0.014501
 3475 Fit       0.013459
 3476 Fit      -0.029537
 3477 Fit      -0.030337
 3478 Fit      -0.030337
 3479 Fit      -0.029537
 3480 Fit      -0.029065
 3481 Fit      -0.031635
 3482 Fit      -0.033555
 3483 Fit      -0.034584
 3484 Fit      -0.034584
 3485 Fit      -0.033555
 3486 Fit      -0.031635
 3487 Fit      -0.029065
 3488 Fit      -0.028318
 3489 Fit      -0.031857
 3490 Fit      -0.034995
 3491 Fit      -0.037361
 3492 Fit      -0.038636
 3493 Fit      -0.038636
 3494 Fit      -0.037361
 3495 Fit      -0.034995
 3496 Fit      -0.031857
 3497 Fit      -0.028318
 3498 Fit      -0.025722
 3499 Fit      -0.029793
 3500 Fit      -0.033843
 3501 Fit      -0.037463
 3502 Fit      -0.040199
 3503 Fit      -0.041672
 3504 Fit      -0.041672
 3505 Fit      -0.040199
 3506 Fit      -0.037463
 3507 Fit      -0.033843
 3508 Fit      -0.029793
 3509 Fit      -0.025722
 3510 Fit      -0.025743
 3511 Fit      -0.030037
 3512 Fit      -0.034322
 3513 Fit      -0.038138
 3514 Fit      -0.040988
 3515 Fit      -0.042500
 3516 Fit      -0.042500
 3517 Fit      -0.040988
 3518 Fit      -0.038138
 3519 Fit      -0.034322
 3520 Fit      -0.030037
 3521 Fit      -0.025743
 3522 Fit      -0.020620
 3523 Fit      -0.024451
 3524 Fit      -0.028560
 3525 Fit      -0.032605
 3526 Fit      -0.036108
 3527 Fit      -0.038617
 3528 Fit      -0.039890
 3529 Fit      -0.039890
 3530 Fit      -0.038617
 3531 Fit      -0.036108
 3532 Fit      -0.032605
 3533 Fit      -0.028560
 3534 Fit      -0.024451
 3535 Fit      -0.020620
 3536 Fit      -0.018407
 3537 Fit      -0.021692
 3538 Fit      -0.025116
 3539 Fit      -0.028327
 3540 Fit      -0.030895
 3541 Fit      -0.032527
 3542 Fit      -0.033246
 3543 Fit      -0.033246
 3544 Fit      -0.032527
 3545 Fit      -0.030895
 3546 Fit      -0.028327
 3547 Fit      -0.025116
 3548 Fit      -0.021692
 3549 Fit      -0.018407
 3550 Fit      -0.015224
 3551 Fit      -0.017601
 3552 Fit      -0.019882
 3553 Fit      -0.021736
 3554 Fit      -0.022853
 3555 Fit      -0.023196
 3556 Fit      -0.023139
 3557 Fit      -0.023139
 3558 Fit      -0.023196
 3559 Fit      -0.022853
 3560 Fit      -0.021736
 3561 Fit      -0.019882
 3562 Fit      -0.017601
 3563 Fit      -0.015224
 3564 Fit      -0.011370
 3565 Fit      -0.012617
 3566 Fit      -0.013496
 3567 Fit      -0.013728
 3568 Fit      -0.013177
 3569 Fit      -0.012101
 3570 Fit      -0.011217
 3571 Fit      -0.011217
 3572 Fit      -0.012101
 3573 Fit      -0.013177
 3574 Fit      -0.013728
 3575 Fit      -0.013496
 3576 Fit      -0.012617
 3577 Fit      -0.011370
 3578 Fit      -0.006812
 3579 Fit      -0.007275
 3580 Fit      -0.007376
 3581 Fit      -0.006877
 3582 Fit      -0.005579
 3583 Fit      -0.003519
 3584 Fit      -0.001217
 3585 Fit       0.000358
 3586 Fit       0.000358
 3587 Fit      -0.001217
 3588 Fit      -0.003519
 3589 Fit      -0.005579
 3590 Fit      -0.006877
 3591 Fit      -0.007376
 3592 Fit      -0.007275
 3593 Fit      -0.006812
 3594 Fit      -0.003723
 3595 Fit      -0.003383
 3596 Fit      -0.002518
 3597 Fit      -0.000927
 3598 Fit       0.001501
 3599 Fit       0.004579
 3600 Fit       0.007638
 3601 Fit       0.009607
 3602 Fit       0.009607
 3603 Fit       0.007638
 3604 Fit       0.004579
 3605 Fit       0.001501
 3606 Fit      -0.000927
 3607 Fit      -0.002518
 3608 Fit      -0.003383
 3609 Fit      -0.003723
 3610 Fit      -0.000037
 3611 Fit       0.001490
 3612 Fit       0.003747
 3613 Fit       0.006749
 3614 Fit       0.010219
 3615 Fit       0.013455
 3616 Fit       0.015463
 3617 Fit       0.015463
 3618 Fit       0.013455
 3619 Fit       0.010219
 3620 Fit       0.006749
 3621 Fit       0.003747
 3622 Fit       0.001490
 3623 Fit      -0.000037
 3624 Fit       0.002578
 3625 Fit       0.004444
 3626 Fit       0.006942
 3627 Fit       0.010011
 3628 Fit       0.013338
 3629 Fit       0.016294
 3630 Fit       0.018071
 3631 Fit       0.018071
 3632 Fit       0.016294
 3633 Fit       0.013338
 3634 Fit       0.010011
 3635 Fit       0.006942
 3636 Fit       0.004444
 3637 Fit       0.002578
 3638 Fit       0.004435
 3639 Fit       0.006372
 3640 Fit       0.008794
 3641 Fit       0.011593
 3642 Fit       0.014471
 3643 Fit       0.016921
 3644 Fit       0.018353
 3645 Fit       0.018353
 3646 Fit       0.016921
 3647 Fit       0.014471
 3648 Fit       0.011593
 3649 Fit       0.008794
 3650 Fit       0.006372
 3651 Fit       0.004435
 3652 Fit       0.007449
 3653 Fit       0.009614
 3654 Fit       0.011991
 3655 Fit       0.014325
 3656 Fit       0.016239
 3657 Fit       0.017330
 3658 Fit       0.017330
 3659 Fit       0.016239
 3660 Fit       0.014325
 3661 Fit       0.011991
 3662 Fit       0.009614
 3663 Fit       0.007449
 3664 Fit       0.009737
 3665 Fit       0.011669
 3666 Fit       0.013493
 3667 Fit       0.014941
 3668 Fit       0.015750
 3669 Fit       0.015750
 3670 Fit       0.014941
 3671 Fit       0.013493
 3672 Fit       0.011669
 3673 Fit       0.009737
 3674 Fit       0.010971
 3675 Fit       0.012370
 3676 Fit       0.013451
 3677 Fit       0.014044
 3678 Fit       0.014044
 3679 Fit       0.013451
 3680 Fit       0.012370
 3681 Fit       0.010971
 3682 Fit       0.012423
 3683 Fit       0.012423
 3684 Fit      -0.027875
 3685 Fit      -0.028605
 3686 Fit      -0.028605
 3687 Fit      -0.027875
 3688 Fit      -0.026321
 3689 Fit      -0.028498
 3690 Fit      -0.030109
 3691 Fit      -0.030968
 3692 Fit      -0.030968
 3693 Fit      -0.030109
 3694 Fit      -0.028498
 3695 Fit      -0.026321
 3696 Fit      -0.024511
 3697 Fit      -0.027271
 3698 Fit      -0.029671
 3699 Fit      -0.031451
 3700 Fit      -0.032400
 3701 Fit      -0.032400
 3702 Fit      -0.031451
 3703 Fit      -0.029671
 3704 Fit      -0.027271
 3705 Fit      -0.024511
 3706 Fit      -0.024254
 3707 Fit      -0.027071
 3708 Fit      -0.029510
 3709 Fit      -0.031308
 3710 Fit      -0.032259
 3711 Fit      -0.032259
 3712 Fit      -0.031308
 3713 Fit      -0.029510
 3714 Fit      -0.027071
 3715 Fit      -0.024254
 3716 Fit      -0.020042
 3717 Fit      -0.022776
 3718 Fit      -0.025369
 3719 Fit      -0.027571
 3720 Fit      -0.029154
 3721 Fit      -0.029974
 3722 Fit      -0.029974
 3723 Fit      -0.029154
 3724 Fit      -0.027571
 3725 Fit      -0.025369
 3726 Fit      -0.022776
 3727 Fit      -0.020042
 3728 Fit      -0.017734
 3729 Fit      -0.019983
 3730 Fit      -0.022033
 3731 Fit      -0.023681
 3732 Fit      -0.024791
 3733 Fit      -0.025332
 3734 Fit      -0.025332
 3735 Fit      -0.024791
 3736 Fit      -0.023681
 3737 Fit      -0.022033
 3738 Fit      -0.019983
 3739 Fit      -0.017734
 3740 Fit      -0.014523
 3741 Fit      -0.016037
 3742 Fit      -0.017271
 3743 Fit      -0.018106
 3744 Fit      -0.018537
 3745 Fit      -0.018686
 3746 Fit      -0.018686
 3747 Fit      -0.018537
 3748 Fit      -0.018106
 3749 Fit      -0.017271
 3750 Fit      -0.016037
 3751 Fit      -0.014523
 3752 Fit      -0.009828
 3753 Fit      -0.010712
 3754 Fit      -0.011351
 3755 Fit      -0.011633
 3756 Fit      -0.011540
 3757 Fit      -0.011214
 3758 Fit      -0.010933
 3759 Fit      -0.010933
 3760 Fit      -0.011214
 3761 Fit      -0.011540
 3762 Fit      -0.011633
 3763 Fit      -0.011351
 3764 Fit      -0.010712
 3765 Fit      -0.009828
 3766 Fit      -0.006589
 3767 Fit      -0.006715
 3768 Fit      -0.006492
 3769 Fit      -0.005864
 3770 Fit      -0.004912
 3771 Fit      -0.003907
 3772 Fit      -0.003249
 3773 Fit      -0.003249
 3774 Fit      -0.003907
 3775 Fit      -0.004912
 3776 Fit      -0.005864
 3777 Fit      -0.006492
 3778 Fit      -0.006715
 3779 Fit      -0.006589
 3780 Fit      -0.003479
 3781 Fit      -0.002951
 3782 Fit      -0.002019
 3783 Fit      -0.000683
 3784 Fit       0.000900
 3785 Fit       0.002376
 3786 Fit       0.003284
 3787 Fit       0.003284
 3788 Fit       0.002376
 3789 Fit       0.000900
 3790 Fit      -0.000683
 3791 Fit      -0.002019
 3792 Fit      -0.002951
 3793 Fit      -0.003479
 3794 Fit      -0.000743
 3795 Fit       0.000259
 3796 Fit       0.001663
 3797 Fit       0.003421
 3798 Fit       0.005329
 3799 Fit       0.007011
 3800 Fit       0.008013
 3801 Fit       0.008013
 3802 Fit       0.007011
 3803 Fit       0.005329
 3804 Fit       0.003421
 3805 Fit       0.001663
 3806 Fit       0.000259
 3807 Fit      -0.000743
 3808 Fit       0.002750
 3809 Fit       0.004377
 3810 Fit       0.006274
 3811 Fit       0.008225
 3812 Fit       0.009878
 3813 Fit       0.010840
 3814 Fit       0.010840
 3815 Fit       0.009878
 3816 Fit       0.008225
 3817 Fit       0.006274
 3818 Fit       0.004377
 3819 Fit       0.002750
 3820 Fit       0.004504
 3821 Fit       0.006152
 3822 Fit       0.007976
 3823 Fit       0.009774
 3824 Fit       0.011249
 3825 Fit       0.012089
 3826 Fit       0.012089
 3827 Fit       0.011249
 3828 Fit       0.009774
 3829 Fit       0.007976
 3830 Fit       0.006152
 3831 Fit       0.004504
 3832 Fit       0.007146
 3833 Fit       0.008775
 3834 Fit       0.010323
 3835 Fit       0.011557
 3836 Fit       0.012248
 3837 Fit       0.012248
 3838 Fit       0.011557
 3839 Fit       0.010323
 3840 Fit       0.008775
 3841 Fit       0.007146
 3842 Fit       0.008947
 3843 Fit       0.010223
 3844 Fit       0.011217
 3845 Fit       0.011764
 3846 Fit       0.011764
 3847 Fit       0.011217
 3848 Fit       0.010223
 3849 Fit       0.008947
 3850 Fit       0.010536
 3851 Fit       0.010961
 3852 Fit       0.010961
 3853 Fit       0.010536
 3854 Fit      -0.025029
 3855 Fit      -0.025656
 3856 Fit      -0.025656
 3857 Fit      -0.025029
 3858 Fit      -0.023331
 3859 Fit      -0.024500
 3860 Fit      -0.025115
 3861 Fit      -0.025115
 3862 Fit      -0.024500
 3863 Fit      -0.023331
 3864 Fit      -0.020194
 3865 Fit      -0.021631
 3866 Fit      -0.022658
 3867 Fit      -0.023191
 3868 Fit      -0.023191
 3869 Fit      -0.022658
 3870 Fit      -0.021631
 3871 Fit      -0.020194
 3872 Fit      -0.017600
 3873 Fit      -0.018697
 3874 Fit      -0.019448
 3875 Fit      -0.019826
 3876 Fit      -0.019826
 3877 Fit      -0.019448
 3878 Fit      -0.018697
 3879 Fit      -0.017600
 3880 Fit      -0.013230
 3881 Fit      -0.014097
 3882 Fit      -0.014719
 3883 Fit      -0.015092
 3884 Fit      -0.015257
 3885 Fit      -0.015257
 3886 Fit      -0.015092
 3887 Fit      -0.014719
 3888 Fit      -0.014097
 3889 Fit      -0.013230
 3890 Fit      -0.009739
 3891 Fit      -0.010030
 3892 Fit      -0.010115
 3893 Fit      -0.010066
 3894 Fit      -0.009997
 3895 Fit      -0.009997
 3896 Fit      -0.010066
 3897 Fit      -0.010115
 3898 Fit      -0.010030
 3899 Fit      -0.009739
 3900 Fit      -0.006164
 3901 Fit      -0.006113
 3902 Fit      -0.005847
 3903 Fit      -0.005425
 3904 Fit      -0.004986
 3905 Fit      -0.004704
 3906 Fit      -0.004704
 3907 Fit      -0.004986
 3908 Fit      -0.005425
 3909 Fit      -0.005847
 3910 Fit      -0.006113
 3911 Fit      -0.006164
 3912 Fit      -0.003227
 3913 Fit      -0.002708
 3914 Fit      -0.001987
 3915 Fit      -0.001168
 3916 Fit      -0.000433
 3917 Fit       0.000006
 3918 Fit       0.000006
 3919 Fit      -0.000433
 3920 Fit      -0.001168
 3921 Fit      -0.001987
 3922 Fit      -0.002708
 3923 Fit      -0.003227
 3924 Fit       0.000205
 3925 Fit       0.001229
 3926 Fit       0.002292
 3927 Fit       0.003193
 3928 Fit       0.003716
 3929 Fit       0.003716
 3930 Fit       0.003193
 3931 Fit       0.002292
 3932 Fit       0.001229
 3933 Fit       0.000205
 3934 Fit       0.002483
 3935 Fit       0.003650
 3936 Fit       0.004804
 3937 Fit       0.005749
 3938 Fit       0.006286
 3939 Fit       0.006286
 3940 Fit       0.005749
 3941 Fit       0.004804
 3942 Fit       0.003650
 3943 Fit       0.002483
 3944 Fit       0.005288
 3945 Fit       0.006412
 3946 Fit       0.007309
 3947 Fit       0.007810
 3948 Fit       0.007810
 3949 Fit       0.007309
 3950 Fit       0.006412
 3951 Fit       0.005288
 3952 Fit       0.007277
 3953 Fit       0.008073
 3954 Fit       0.008511
 3955 Fit       0.008511
 3956 Fit       0.008073
 3957 Fit       0.007277
 3958 Fit       0.008640
 3959 Fit       0.008640
 3960 Fit      -0.015667
 3961 Fit      -0.015933
 3962 Fit      -0.015933
 3963 Fit      -0.015667
 3964 Fit      -0.012229
 3965 Fit      -0.012530
 3966 Fit      -0.012674
 3967 Fit      -0.012674
 3968 Fit      -0.012530
 3969 Fit      -0.012229
 3970 Fit      -0.008752
 3971 Fit      -0.008901
 3972 Fit      -0.008956
 3973 Fit      -0.008966
 3974 Fit      -0.008966
 3975 Fit      -0.008956
 3976 Fit      -0.008901
 3977 Fit      -0.008752
 3978 Fit      -0.005649
 3979 Fit      -0.005487
 3980 Fit      -0.005307
 3981 Fit      -0.005191
 3982 Fit      -0.005191
 3983 Fit      -0.005307
 3984 Fit      -0.005487
 3985 Fit      -0.005649
 3986 Fit      -0.002722
 3987 Fit      -0.002303
 3988 Fit      -0.001935
 3989 Fit      -0.001719
 3990 Fit      -0.001719
 3991 Fit      -0.001935
 3992 Fit      -0.002303
 3993 Fit      -0.002722
 3994 Fit      -0.000187
 3995 Fit       0.000409
 3996 Fit       0.000901
 3997 Fit       0.001181
 3998 Fit       0.001181
 3999 Fit       0.000901
 4000 Fit       0.000409
 4001 Fit      -0.000187
 4002 Fit       0.002525
 4003 Fit       0.003074
 4004 Fit       0.003381
 4005 Fit       0.003381
 4006 Fit       0.003074
 4007 Fit       0.002525
 4008 Fit       0.004584
 4009 Fit       0.004888
 4010 Fit       0.004888
 4011 Fit       0.004584
 Job cpu time:       0 days  0 hours  0 minutes  9.9 seconds.
 Normal termination of Gaussian 16 at Thu May 15 14:36:14 2025.
