 Entering Gaussian System, Link 0=g16
 Initial command:
 /project/home/p200272/packages/gaussian/16c02/l1.exe "/mnt/tier2/users/u101443/CONTO_ERNEST/opt_fake/Gau-8120.inp" -scrdir="/mnt/tier2/users/u101443/CONTO_ERNEST/opt_fake/"
 Entering Link 1 = /project/home/p200272/packages/gaussian/16c02/l1.exe PID=      8122.
  
 Copyright (c) 1988-2021, Gaussian, Inc.  All Rights Reserved.
  
 This is part of the Gaussian(R) 16 program.  It is based on
 the Gaussian(R) 09 system (copyright 2009, Gaussian, Inc.),
 the Gaussian(R) 03 system (copyright 2003, Gaussian, Inc.),
 the Gaussian(R) 98 system (copyright 1998, Gaussian, Inc.),
 the Gaussian(R) 94 system (copyright 1995, Gaussian, Inc.),
 the Gaussian 92(TM) system (copyright 1992, Gaussian, Inc.),
 the Gaussian 90(TM) system (copyright 1990, Gaussian, Inc.),
 the Gaussian 88(TM) system (copyright 1988, Gaussian, Inc.),
 the Gaussian 86(TM) system (copyright 1986, Carnegie Mellon
 University), and the Gaussian 82(TM) system (copyright 1983,
 Carnegie Mellon University). Gaussian is a federally registered
 trademark of Gaussian, Inc.
  
 This software contains proprietary and confidential information,
 including trade secrets, belonging to Gaussian, Inc.
  
 This software is provided under written license and may be
 used, copied, transmitted, or stored only in accord with that
 written license.
  
 The following legend is applicable only to US Government
 contracts under FAR:
  
                    RESTRICTED RIGHTS LEGEND
  
 Use, reproduction and disclosure by the US Government is
 subject to restrictions as set forth in subparagraphs (a)
 and (c) of the Commercial Computer Software - Restricted
 Rights clause in FAR 52.227-19.
  
 Gaussian, Inc.
 340 Quinnipiac St., Bldg. 40, Wallingford CT 06492
  
  
 ---------------------------------------------------------------
 Warning -- This program may not be used in any manner that
 competes with the business of Gaussian, Inc. or will provide
 assistance to any competitor of Gaussian, Inc.  The licensee
 of this program is prohibited from giving any competitor of
 Gaussian, Inc. access to this program.  By using this program,
 the user acknowledges that Gaussian, Inc. is engaged in the
 business of creating and licensing software in the field of
 computational chemistry and represents and warrants to the
 licensee that it is not a competitor of Gaussian, Inc. and that
 it will not use this program in any manner prohibited above.
 ---------------------------------------------------------------
  

 Cite this work as:
 Gaussian 16, Revision C.02,
 M. J. Frisch, G. W. Trucks, H. B. Schlegel, G. E. Scuseria, 
 M. A. Robb, J. R. Cheeseman, G. Scalmani, V. Barone, 
 G. A. Petersson, H. Nakatsuji, X. Li, M. Caricato, A. V. Marenich, 
 J. Bloino, B. G. Janesko, R. Gomperts, B. Mennucci, H. P. Hratchian, 
 J. V. Ortiz, A. F. Izmaylov, J. L. Sonnenberg, D. Williams-Young, 
 F. Ding, F. Lipparini, F. Egidi, J. Goings, B. Peng, A. Petrone, 
 T. Henderson, D. Ranasinghe, V. G. Zakrzewski, J. Gao, N. Rega, 
 G. Zheng, W. Liang, M. Hada, M. Ehara, K. Toyota, R. Fukuda, 
 J. Hasegawa, M. Ishida, T. Nakajima, Y. Honda, O. Kitao, H. Nakai, 
 T. Vreven, K. Throssell, J. A. Montgomery, Jr., J. E. Peralta, 
 F. Ogliaro, M. J. Bearpark, J. J. Heyd, E. N. Brothers, K. N. Kudin, 
 V. N. Staroverov, T. A. Keith, R. Kobayashi, J. Normand, 
 K. Raghavachari, A. P. Rendell, J. C. Burant, S. S. Iyengar, 
 J. Tomasi, M. Cossi, J. M. Millam, M. Klene, C. Adamo, R. Cammi, 
 J. W. Ochterski, R. L. Martin, K. Morokuma, O. Farkas, 
 J. B. Foresman, and D. J. Fox, Gaussian, Inc., Wallingford CT, 2019.
 
 ******************************************
 Gaussian 16:  ES64L-G16RevC.02  7-Dec-2021
                16-May-2025 
 ******************************************
 %NProcShared=40
 Will use up to   40 processors via shared memory.
 %Mem=100GB
 %Chk=input.chk
 ---------------------------------------
 #T B3LYP/Def2TZVP opt IOp(1/7=10000000)
 ---------------------------------------
 ----
 TEST
 ----
 Symbolic Z-matrix:
 Charge = -1 Multiplicity = 1
 Au                    0.18089   0.04897   0.0295 
 Au                    0.86189  -1.56215  -2.24584 
 Au                    0.81265   2.84116   0.01803 
 Au                    2.69986   3.80028  -2.95196 
 Au                    2.87408   0.47338  -4.54617 
 Au                   -0.51944  -2.76008  -0.03406 
 Au                   -0.88567   1.73385   2.13112 
 Au                   -2.01678  -3.58291   3.21171 
 Au                   -2.32307  -0.30359   4.71082 
 Au                   -2.03405  -0.7943   -1.80655 
 Au                    2.29099  -1.88094   0.48511 
 Au                   -1.40556  -3.92432  -3.07831 
 Au                    1.75843  -4.72523  -1.76691 
 Au                    0.29601  -1.2624    2.59368 
 Au                    2.70771   0.88599  -1.25301 
 Au                    5.37835  -0.60376   0.68257 
 Au                    3.77665  -1.66878   3.64858 
 Au                    0.20312   1.3689   -2.53725 
 Au                   -2.29063  -0.6858    1.35903 
 Au                   -5.11093   0.11031  -0.86391 
 Au                   -3.19293   1.52729  -3.75501 
 Au                   -2.027     1.77491  -0.60572 
 Au                    2.42452   0.80626   1.66935 
 Au                    1.43337   4.12061   2.90522 
 Au                   -1.84577   4.76524   1.42955 
 H                     1.20252  -5.98336   6.42866 
 O                     1.4596   -5.73659   7.33277 
 C                     2.16584  -4.60187   7.27564 
 O                     2.6414   -4.095     8.25368 
 C                     2.27985  -3.93213   5.88743 
 H                     3.32943  -3.64349   5.80401 
 C                     1.40485  -2.68154   5.93419 
 H                     0.34504  -2.93412   5.93952 
 H                     1.62844  -2.1661    6.86573 
 N                     1.92634  -4.824     4.79426 
 H                     1.25446  -4.48397   4.12233 
 C                     2.86623  -5.74589   4.34589 
 O                     3.872    -5.95987   4.98675 
 C                     2.50307  -6.48664   3.08147 
 H                     1.74858  -7.24409   3.30822 
 H                     2.09916  -5.82004   2.31928 
 H                     3.38862  -6.98107   2.69188 
 S                     1.65592  -1.39367   4.63136 
 H                    -5.13096  -6.04986  -3.57558 
 O                    -4.38027  -6.18981  -4.18082 
 C                    -4.13991  -5.09353  -4.90168 
 O                    -3.25522  -5.0799   -5.72032 
 C                    -5.04217  -3.86784  -4.65506 
 H                    -5.50742  -3.6823   -5.62739 
 C                    -4.21179  -2.61912  -4.31759 
 H                    -3.47882  -2.45941  -5.10163 
 H                    -4.8797   -1.76011  -4.27718 
 N                    -6.11585  -4.10719  -3.71112 
 H                    -6.02149  -3.7511   -2.77125 
 C                    -7.35564  -4.54236  -4.14707 
 O                    -7.5248   -4.88345  -5.30024 
 C                    -8.44557  -4.53934  -3.10381 
 H                    -9.20865  -5.25672  -3.39536 
 H                    -8.06835  -4.77896  -2.10964 
 H                    -8.9045   -3.54772  -3.07441 
 S                    -3.36397  -2.70236  -2.67419 
 H                     1.0317    7.07553  -1.10339 
 O                     1.12107   7.91524  -0.61015 
 C                     2.38673   8.09972  -0.17646 
 O                     2.66059   9.01758   0.53875 
 C                     3.43123   7.05711  -0.65322 
 H                     3.42986   7.05725  -1.74458 
 C                     3.06111   5.6354   -0.16989 
 H                     3.93727   4.99753  -0.23052 
 H                     2.73133   5.65748   0.87039 
 N                     4.75844   7.38411  -0.19934 
 H                     4.95456   7.24211   0.78268 
 C                     5.62517   8.29468  -0.7738 
 O                     6.62623   8.63988  -0.18459 
 C                     5.29392   8.78846  -2.16668 
 H                     4.30948   9.25763  -2.20783 
 H                     6.04721   9.51876  -2.44716 
 H                     5.31306   7.96672  -2.88674 
 S                     1.68196   4.87882  -1.1337 
 H                     5.70966   2.74051   3.72037 
 O                     6.11741   3.10817   4.51967 
 C                     5.52469   2.67497   5.64851 
 O                     5.83661   3.1229    6.71148 
 C                     4.42078   1.59958   5.4872 
 H                     4.76934   0.81919   4.80858 
 C                     3.11177   2.18708   4.93089 
 H                     2.31785   1.45654   5.06674 
 H                     2.85142   3.10719   5.45337 
 N                     4.16138   0.96374   6.75529 
 H                     3.49717   1.38803   7.37912 
 C                     4.80121  -0.16819   7.15703 
 O                     5.57808  -0.76453   6.42529 
 C                     4.49668  -0.63399   8.55856 
 H                     3.71665  -0.05051   9.04551 
 H                     4.20242  -1.68298   8.54159 
 H                     5.40876  -0.55261   9.14992 
 S                     3.22117   2.6151    3.13318 
 H                    -6.1952   -5.4248    6.72009 
 O                    -6.36344  -4.89244   7.51422 
 C                    -5.28967  -4.13187   7.75298 
 O                    -5.22326  -3.39087   8.69112 
 C                    -4.13026  -4.23382   6.73052 
 H                    -3.24036  -4.38437   7.34418 
 C                    -4.03658  -2.89383   6.00278 
 H                    -4.80412  -2.77996   5.23961 
 H                    -4.18655  -2.10705   6.73675 
 N                    -4.26625  -5.35391   5.81097 
 H                    -4.31462  -5.14493   4.82553 
 C                    -3.81638  -6.6138    6.1759 
 O                    -3.47656  -6.85059   7.31525 
 C                    -3.84775  -7.65683   5.08487 
 H                    -4.8467   -8.09229   5.02013 
 H                    -3.60383  -7.25132   4.1036 
 H                    -3.14974  -8.45011   5.33963 
 S                    -2.34927  -2.57108   5.31096 
 H                     8.98473   0.32749  -0.98937 
 O                     8.84727   0.43513  -0.03379 
 C                     8.01043   1.4525    0.16937 
 O                     7.68656   1.79407   1.27679 
 C                     7.46027   2.16371  -1.08137 
 H                     7.80174   3.19754  -0.97584 
 C                     5.93007   2.19513  -1.05302 
 H                     5.60973   2.59347  -0.09538 
 H                     5.56903   2.84649  -1.84786 
 N                     7.9799    1.64783  -2.33568 
 H                     7.36236   1.07439  -2.8915 
 C                     9.08042   2.22889  -2.9481 
 O                     9.76289   3.04464  -2.36636 
 C                     9.34417   1.77919  -4.36524 
 H                     10.41347   1.82787  -4.55692 
 H                     8.98004   0.77015  -4.56345 
 H                     8.84263   2.46756  -5.05003 
 S                     5.13041   0.55587  -1.34946 
 H                     4.12903  -7.12242  -1.0231 
 O                     4.68995  -7.22991  -0.24362 
 C                     5.63927  -6.26777  -0.21122 
 O                     6.46385  -6.24928   0.65353 
 C                     5.58258  -5.19311  -1.3147 
 H                     6.6286   -4.94151  -1.4967 
 C                     4.9241   -3.90888  -0.79403 
 H                     5.52622  -3.53116   0.03042 
 H                     4.91163  -3.16379  -1.58605 
 N                     5.0294   -5.64469  -2.57443 
 H                     4.04893  -5.48882  -2.76259 
 C                     5.83808  -6.07526  -3.60633 
 O                     7.04336  -6.15086  -3.48411 
 C                     5.10998  -6.47573  -4.86925 
 H                     5.78516  -6.36478  -5.71375 
 H                     4.82562  -7.52789  -4.79659 
 H                     4.20824  -5.88994  -5.04756 
 S                     3.23588  -4.09039  -0.06507 
 H                    -4.86789   5.45761  -0.65046 
 O                    -5.82681   5.55754  -0.81518 
 C                    -6.54773   4.83952   0.06059 
 O                    -7.72612   4.67514  -0.09362 
 C                    -5.7638    4.25283   1.25289 
 H                    -5.28888   5.07453   1.79306 
 C                    -4.68517   3.25695   0.78925 
 H                    -4.27739   2.76849   1.66902 
 H                    -5.15653   2.48981   0.16842 
 N                    -6.62107   3.51123   2.15182 
 H                    -6.80369   2.55655   1.87723 
 C                    -7.60431   3.96084   2.99123 
 O                    -8.38358   3.14839   3.4769 
 C                    -7.68231   5.42551   3.3184 
 H                    -8.0253    5.52937   4.34478 
 H                    -6.73375   5.94472   3.20188 
 H                    -8.42041   5.88746   2.65958 
 S                    -3.29299   3.91834  -0.21013 
 H                     3.17624  -3.00017  -5.75385 
 O                     3.4194   -3.34106  -6.63735 
 C                     2.64613  -2.82001  -7.60353 
 O                     2.85971  -3.05199  -8.75702 
 C                     1.52791  -1.82558  -7.17198 
 H                     2.00822  -0.84326  -7.21156 
 C                     0.91334  -1.99093  -5.76823 
 H                     0.10141  -1.27557  -5.66729 
 H                     0.51608  -2.99677  -5.64824 
 N                     0.47674  -1.81221  -8.17107 
 H                     0.39366  -1.00474  -8.76228 
 C                    -0.21407  -2.94249  -8.50454 
 O                    -0.07038  -3.97974  -7.8853 
 C                    -1.18916  -2.80037  -9.64884 
 H                    -0.85241  -2.08534  -10.39705 
 H                    -1.32827  -3.77352  -10.11168 
 H                    -2.15189  -2.46473  -9.26272 
 S                     2.10019  -1.73335  -4.38091 
 H                    -5.12177   3.21308   5.92661 
 O                    -4.9727    4.07789   5.50418 
 C                    -3.71205   4.43582   5.70196 
 O                    -3.29601   5.4885    5.27555 
 C                    -2.82219   3.44294   6.46979 
 H                    -2.38013   4.0357    7.27565 
 C                    -1.67975   2.93841   5.5785 
 H                    -1.14283   3.79246   5.17618 
 H                    -0.99184   2.33236   6.16216 
 N                    -3.58621   2.35809   7.0522 
 H                    -3.46231   1.43351   6.66446 
 C                    -4.15026   2.48298   8.31301 
 O                    -4.17327   3.5566    8.87702 
 C                    -4.72943   1.21132   8.88445 
 H                    -5.2407    1.44532   9.8137 
 H                    -5.4326    0.74624   8.19088 
 H                    -3.93671   0.48773   9.08793 
 S                    -2.31657   1.97172   4.14007 
 H                     7.35195  -3.80606   2.76372 
 O                     8.31581  -3.92718   2.77767 
 C                     8.94388  -3.00873   3.5374 
 O                     10.1391  -2.99275   3.59609 
 C                     8.05582  -2.02027   4.34084 
 H                     7.38617  -2.59683   4.98027 
 C                     7.1955   -1.09057   3.45213 
 H                     6.75812  -0.33831   4.09715 
 H                     7.80452  -0.59958   2.69551 
 N                     8.87562  -1.18471   5.17994 
 H                     9.42595  -0.47358   4.71842 
 C                     9.3691   -1.49979   6.4263 
 O                     10.22598  -0.80592   6.93752 
 C                     8.78902  -2.71246   7.11646 
 H                     8.9989   -3.62625   6.55499 
 H                     9.2514   -2.79017   8.09669 
 H                     7.70847  -2.60983   7.21882 
 S                     5.82973  -1.9635    2.54554 
 H                    -1.68617   6.48935   5.75284 
 O                    -0.96146   7.01553   6.15433 
 C                    -0.55512   8.05413   5.42348 
 O                     0.20452   8.87221   5.86616 
 C                    -1.03389   8.12987   3.96046 
 H                    -2.04746   7.73437   3.88853 
 C                    -0.08501   7.29023   3.0461 
 H                    -0.18591   7.62434   2.01723 
 H                     0.94882   7.43271   3.35506 
 N                    -1.00821   9.52137   3.57766 
 H                    -0.37059   10.10556   4.10448 
 C                    -1.88701   10.18708   2.76449 
 O                    -1.83393   11.39528   2.6426 
 C                    -2.93196   9.36095   2.03849 
 H                    -3.77281   9.16207   2.70821 
 H                    -3.29573   9.94868   1.19992 
 H                    -2.55254   8.4052    1.67572 
 S                    -0.44775   5.48246   3.15143 
 H                     5.81034   3.48833  -5.10336 
 O                     6.42784   3.87709  -5.75353 
 C                     5.76417   4.51856  -6.73853 
 O                     6.33945   4.93842  -7.69812 
 C                     4.23763   4.70469  -6.52471 
 H                     4.1083    5.31562  -5.6291 
 C                     3.49584   3.36887  -6.29841 
 H                     2.42961   3.53835  -6.40866 
 H                     3.80857   2.62586  -7.03287 
 N                     3.62908   5.39298  -7.6341 
 H                     3.59554   4.88817  -8.51041 
 C                     3.60259   6.76237  -7.83938 
 O                     3.30651   7.20608  -8.92692 
 C                     3.90494   7.65329  -6.65384 
 H                     3.78882   8.6843   -6.97476 
 H                     3.22105   7.45962  -5.82455 
 H                     4.92693   7.50632  -6.29881 
 S                     3.83207   2.6262   -4.64329 
 H                    -2.45172  -8.9766   -4.93352 
 O                    -2.24186  -9.60803  -4.22079 
 C                    -1.03953  -9.28827  -3.7327 
 O                    -0.52183  -9.92094  -2.85111 
 C                    -0.40657  -7.99563  -4.29793 
 H                     0.6184   -8.25332  -4.5673 
 C                    -0.40338  -7.01068  -3.12534 
 H                    -1.42019  -6.81986  -2.79112 
 H                     0.15552  -7.45998  -2.3117 
 N                    -1.0963   -7.49336  -5.47181 
 H                    -1.59218  -6.60952  -5.42453 
 C                    -0.68658  -7.91906  -6.72692 
 O                     0.08066  -8.85275  -6.85286 
 C                    -1.26047  -7.14749  -7.88737 
 H                    -1.43134  -7.83256  -8.71523 
 H                    -2.17971  -6.62422  -7.62766 
 H                    -0.53045  -6.39686  -8.19964 
 S                     0.37456  -5.37948  -3.55677 
 H                    -4.27319  -7.86049  -0.92304 
 O                    -5.09162  -7.33437  -0.94056 
 C                    -5.05328  -6.44627   0.06693 
 O                    -5.98169  -5.72341   0.2971 
 C                    -3.72273  -6.34484   0.83138 
 H                    -3.99492  -6.28436   1.8859 
 C                    -3.07034  -5.03592   0.37076 
 H                    -2.85259  -5.07605  -0.69638 
 H                    -3.76389  -4.21838   0.54057 
 N                    -2.84819  -7.48368   0.59598 
 H                    -1.89461  -7.2622    0.34642 
 C                    -3.03611  -8.66045   1.31201 
 O                    -4.0549   -8.83787   1.94742 
 C                    -1.92509  -9.67269   1.18452 
 H                    -0.9543   -9.2275    1.41158 
 H                    -2.11737  -10.49377   1.86934 
 H                    -1.87201  -10.05958   0.16389 
 S                    -1.47117  -4.68553   1.20225 
 H                    -3.66363   2.50425  -6.17202 
 O                    -3.43176   2.47213  -7.11322 
 C                    -2.31546   3.19377  -7.35494 
 O                    -1.77614   3.14923  -8.42313 
 C                    -1.75042   4.04265  -6.19984 
 H                    -1.28426   4.89523  -6.69734 
 C                    -0.61632   3.28844  -5.49932 
 H                     0.09278   2.98289  -6.26857 
 H                    -0.11181   3.94893  -4.79849 
 N                    -2.72875   4.61507  -5.30231 
 H                    -3.06344   4.06245  -4.52602 
 C                    -2.95234   5.9791   -5.27856 
 O                    -2.41681   6.73211  -6.06593 
 C                    -3.91403   6.46466  -4.21948 
 H                    -3.38827   7.16492  -3.56942 
 H                    -4.72082   7.01287  -4.70388 
 H                    -4.3455    5.66524  -3.61724 
 S                    -1.01637   1.68759  -4.64762 
 H                    -7.14557   0.44595  -4.37724 
 O                    -7.98804   0.68399  -4.80881 
 C                    -8.10112   2.01561  -4.99298 
 O                    -9.06032   2.48096  -5.52986 
 C                    -6.90246   2.87481  -4.50352 
 H                    -6.07859   2.61634  -5.17489 
 C                    -6.42921   2.53899  -3.06342 
 H                    -5.85278   3.37335  -2.67669 
 H                    -7.26725   2.3582   -2.39361 
 N                    -7.11588   4.28877  -4.70125 
 H                    -6.67664   4.68895  -5.51734 
 C                    -8.13745   5.10705  -4.24233 
 O                    -8.26102   6.21224  -4.72851 
 C                    -8.99766   4.62656  -3.10038 
 H                    -8.47138   4.77189  -2.15444 
 H                    -9.89543   5.23857  -3.08482 
 H                    -9.28593   3.58057  -3.19128 
 S                    -5.38998   1.00873  -3.03147 
 H                    -7.80039   1.59117   4.22456 
 O                    -7.51682   0.89725   4.86625 
 C                    -7.03761  -0.25128   4.40986 
 O                    -6.61618  -1.09434   5.16383 
 C                    -6.88403  -0.50625   2.88879 
 H                    -7.12144  -1.56582   2.77225 
 C                    -5.40252  -0.26814   2.59127 
 H                    -5.17751   0.79548   2.54771 
 H                    -4.82822  -0.68505   3.41442 
 N                    -7.73679   0.2945    2.03092 
 H                    -7.32844   0.62955   1.17088 
 C                    -9.1008    0.06618   2.02088 
 O                    -9.61632  -0.65573   2.84688 
 C                    -9.88905   0.79928   0.96153 
 H                    -10.58443   1.4748    1.45964 
 H                    -9.26941   1.38075   0.27973 
 H                    -10.4763   0.07562   0.39669 
 S                    -4.71605  -1.11216   1.10418 
 

 GradGradGradGradGradGradGradGradGradGradGradGradGradGradGradGradGradGrad
 Initialization pass.
                           ----------------------------
                           !    Initial Parameters    !
                           ! (Angstroms and Degrees)  !
 --------------------------                            --------------------------
 ! Name  Definition              Value          Derivative Info.                !
 --------------------------------------------------------------------------------
 ! R1    R(1,2)                  2.87           estimate D2E/DX2                !
 ! R2    R(1,3)                  2.8628         estimate D2E/DX2                !
 ! R3    R(1,6)                  2.8957         estimate D2E/DX2                !
 ! R4    R(1,7)                  2.8971         estimate D2E/DX2                !
 ! R5    R(1,10)                 2.998          estimate D2E/DX2                !
 ! R6    R(1,11)                 2.8956         estimate D2E/DX2                !
 ! R7    R(1,14)                 2.8824         estimate D2E/DX2                !
 ! R8    R(1,15)                 2.9547         estimate D2E/DX2                !
 ! R9    R(1,18)                 2.8863         estimate D2E/DX2                !
 ! R10   R(1,19)                 2.901          estimate D2E/DX2                !
 ! R11   R(1,22)                 2.8735         estimate D2E/DX2                !
 ! R12   R(1,23)                 2.8804         estimate D2E/DX2                !
 ! R13   R(2,6)                  2.8697         estimate D2E/DX2                !
 ! R14   R(2,10)                 3.028          estimate D2E/DX2                !
 ! R15   R(2,11)                 3.0987         estimate D2E/DX2                !
 ! R16   R(2,18)                 3.0183         estimate D2E/DX2                !
 ! R17   R(2,187)                2.4741         estimate D2E/DX2                !
 ! R18   R(3,7)                  2.9284         estimate D2E/DX2                !
 ! R19   R(3,15)                 3.0049         estimate D2E/DX2                !
 ! R20   R(3,18)                 3.0114         estimate D2E/DX2                !
 ! R21   R(3,22)                 3.0967         estimate D2E/DX2                !
 ! R22   R(3,23)                 3.0767         estimate D2E/DX2                !
 ! R23   R(3,79)                 2.4968         estimate D2E/DX2                !
 ! R24   R(4,79)                 2.3464         estimate D2E/DX2                !
 ! R25   R(4,259)                2.3497         estimate D2E/DX2                !
 ! R26   R(5,187)                2.3443         estimate D2E/DX2                !
 ! R27   R(5,259)                2.3584         estimate D2E/DX2                !
 ! R28   R(6,10)                 3.0496         estimate D2E/DX2                !
 ! R29   R(6,11)                 2.9901         estimate D2E/DX2                !
 ! R30   R(6,14)                 3.1326         estimate D2E/DX2                !
 ! R31   R(6,19)                 3.0628         estimate D2E/DX2                !
 ! R32   R(6,295)                2.4782         estimate D2E/DX2                !
 ! R33   R(7,19)                 2.9025         estimate D2E/DX2                !
 ! R34   R(7,22)                 2.9656         estimate D2E/DX2                !
 ! R35   R(7,205)                2.4779         estimate D2E/DX2                !
 ! R36   R(8,115)                2.354          estimate D2E/DX2                !
 ! R37   R(8,295)                2.3561         estimate D2E/DX2                !
 ! R38   R(9,115)                2.3457         estimate D2E/DX2                !
 ! R39   R(9,205)                2.3458         estimate D2E/DX2                !
 ! R40   R(10,18)                3.1966         estimate D2E/DX2                !
 ! R41   R(10,19)                3.1778         estimate D2E/DX2                !
 ! R42   R(10,22)                2.836          estimate D2E/DX2                !
 ! R43   R(10,61)                2.4824         estimate D2E/DX2                !
 ! R44   R(11,14)                2.9679         estimate D2E/DX2                !
 ! R45   R(11,23)                2.9396         estimate D2E/DX2                !
 ! R46   R(11,151)               2.4652         estimate D2E/DX2                !
 ! R47   R(12,61)                2.3435         estimate D2E/DX2                !
 ! R48   R(12,277)               2.3485         estimate D2E/DX2                !
 ! R49   R(13,151)               2.3414         estimate D2E/DX2                !
 ! R50   R(13,277)               2.3551         estimate D2E/DX2                !
 ! R51   R(14,19)                2.9236         estimate D2E/DX2                !
 ! R52   R(14,23)                3.1087         estimate D2E/DX2                !
 ! R53   R(14,43)                2.4533         estimate D2E/DX2                !
 ! R54   R(15,18)                2.8558         estimate D2E/DX2                !
 ! R55   R(15,23)                2.9371         estimate D2E/DX2                !
 ! R56   R(15,133)               2.447          estimate D2E/DX2                !
 ! R57   R(16,133)               2.3527         estimate D2E/DX2                !
 ! R58   R(16,223)               2.3502         estimate D2E/DX2                !
 ! R59   R(17,43)                2.3535         estimate D2E/DX2                !
 ! R60   R(17,223)               2.3492         estimate D2E/DX2                !
 ! R61   R(18,22)                2.9781         estimate D2E/DX2                !
 ! R62   R(18,313)               2.4581         estimate D2E/DX2                !
 ! R63   R(19,22)                3.1599         estimate D2E/DX2                !
 ! R64   R(19,349)               2.4758         estimate D2E/DX2                !
 ! R65   R(20,331)               2.3629         estimate D2E/DX2                !
 ! R66   R(20,349)               2.3503         estimate D2E/DX2                !
 ! R67   R(21,313)               2.3579         estimate D2E/DX2                !
 ! R68   R(21,331)               2.3705         estimate D2E/DX2                !
 ! R69   R(22,169)               2.5206         estimate D2E/DX2                !
 ! R70   R(23,97)                2.4595         estimate D2E/DX2                !
 ! R71   R(24,97)                2.3483         estimate D2E/DX2                !
 ! R72   R(24,241)               2.3354         estimate D2E/DX2                !
 ! R73   R(25,169)               2.3453         estimate D2E/DX2                !
 ! R74   R(25,241)               2.331          estimate D2E/DX2                !
 ! R75   R(26,27)                0.9718         estimate D2E/DX2                !
 ! R76   R(27,28)                1.3378         estimate D2E/DX2                !
 ! R77   R(28,29)                1.1998         estimate D2E/DX2                !
 ! R78   R(28,30)                1.5455         estimate D2E/DX2                !
 ! R79   R(30,31)                1.0917         estimate D2E/DX2                !
 ! R80   R(30,32)                1.527          estimate D2E/DX2                !
 ! R81   R(30,35)                1.4544         estimate D2E/DX2                !
 ! R82   R(32,33)                1.0895         estimate D2E/DX2                !
 ! R83   R(32,34)                1.0879         estimate D2E/DX2                !
 ! R84   R(32,43)                1.8491         estimate D2E/DX2                !
 ! R85   R(35,36)                1.0092         estimate D2E/DX2                !
 ! R86   R(35,37)                1.3908         estimate D2E/DX2                !
 ! R87   R(37,38)                1.2116         estimate D2E/DX2                !
 ! R88   R(37,39)                1.5097         estimate D2E/DX2                !
 ! R89   R(39,40)                1.0929         estimate D2E/DX2                !
 ! R90   R(39,41)                1.0902         estimate D2E/DX2                !
 ! R91   R(39,42)                1.0865         estimate D2E/DX2                !
 ! R92   R(44,45)                0.9744         estimate D2E/DX2                !
 ! R93   R(45,46)                1.3339         estimate D2E/DX2                !
 ! R94   R(46,47)                1.2054         estimate D2E/DX2                !
 ! R95   R(46,48)                1.5418         estimate D2E/DX2                !
 ! R96   R(48,49)                1.0938         estimate D2E/DX2                !
 ! R97   R(48,50)                1.5371         estimate D2E/DX2                !
 ! R98   R(48,53)                1.4495         estimate D2E/DX2                !
 ! R99   R(50,51)                1.0851         estimate D2E/DX2                !
 ! R100  R(50,52)                1.0889         estimate D2E/DX2                !
 ! R101  R(50,61)                1.8511         estimate D2E/DX2                !
 ! R102  R(53,54)                1.0095         estimate D2E/DX2                !
 ! R103  R(53,55)                1.3844         estimate D2E/DX2                !
 ! R104  R(55,56)                1.2144         estimate D2E/DX2                !
 ! R105  R(55,57)                1.5088         estimate D2E/DX2                !
 ! R106  R(57,58)                1.0872         estimate D2E/DX2                !
 ! R107  R(57,59)                1.09           estimate D2E/DX2                !
 ! R108  R(57,60)                1.0931         estimate D2E/DX2                !
 ! R109  R(62,63)                0.9779         estimate D2E/DX2                !
 ! R110  R(63,64)                1.3506         estimate D2E/DX2                !
 ! R111  R(64,65)                1.1954         estimate D2E/DX2                !
 ! R112  R(64,66)                1.5509         estimate D2E/DX2                !
 ! R113  R(66,67)                1.0914         estimate D2E/DX2                !
 ! R114  R(66,68)                1.5466         estimate D2E/DX2                !
 ! R115  R(66,71)                1.4403         estimate D2E/DX2                !
 ! R116  R(68,69)                1.0854         estimate D2E/DX2                !
 ! R117  R(68,70)                1.0915         estimate D2E/DX2                !
 ! R118  R(68,79)                1.8448         estimate D2E/DX2                !
 ! R119  R(71,72)                1.0114         estimate D2E/DX2                !
 ! R120  R(71,73)                1.3822         estimate D2E/DX2                !
 ! R121  R(73,74)                1.2118         estimate D2E/DX2                !
 ! R122  R(73,75)                1.5145         estimate D2E/DX2                !
 ! R123  R(75,76)                1.0913         estimate D2E/DX2                !
 ! R124  R(75,77)                1.086          estimate D2E/DX2                !
 ! R125  R(75,78)                1.0927         estimate D2E/DX2                !
 ! R126  R(80,81)                0.9697         estimate D2E/DX2                !
 ! R127  R(81,82)                1.3466         estimate D2E/DX2                !
 ! R128  R(82,83)                1.1949         estimate D2E/DX2                !
 ! R129  R(82,84)                1.5496         estimate D2E/DX2                !
 ! R130  R(84,85)                1.0913         estimate D2E/DX2                !
 ! R131  R(84,86)                1.5389         estimate D2E/DX2                !
 ! R132  R(84,89)                1.4421         estimate D2E/DX2                !
 ! R133  R(86,87)                1.0874         estimate D2E/DX2                !
 ! R134  R(86,88)                1.0897         estimate D2E/DX2                !
 ! R135  R(86,97)                1.8512         estimate D2E/DX2                !
 ! R136  R(89,90)                1.0052         estimate D2E/DX2                !
 ! R137  R(89,91)                1.3609         estimate D2E/DX2                !
 ! R138  R(91,92)                1.2225         estimate D2E/DX2                !
 ! R139  R(91,93)                1.508          estimate D2E/DX2                !
 ! R140  R(93,94)                1.089          estimate D2E/DX2                !
 ! R141  R(93,95)                1.0896         estimate D2E/DX2                !
 ! R142  R(93,96)                1.0901         estimate D2E/DX2                !
 ! R143  R(98,99)                0.9707         estimate D2E/DX2                !
 ! R144  R(99,100)               1.3373         estimate D2E/DX2                !
 ! R145  R(100,101)              1.1973         estimate D2E/DX2                !
 ! R146  R(100,102)              1.5492         estimate D2E/DX2                !
 ! R147  R(102,103)              1.0914         estimate D2E/DX2                !
 ! R148  R(102,104)              1.5277         estimate D2E/DX2                !
 ! R149  R(102,107)              1.4556         estimate D2E/DX2                !
 ! R150  R(104,105)              1.0884         estimate D2E/DX2                !
 ! R151  R(104,106)              1.0864         estimate D2E/DX2                !
 ! R152  R(104,115)              1.852          estimate D2E/DX2                !
 ! R153  R(107,108)              1.0085         estimate D2E/DX2                !
 ! R154  R(107,109)              1.3867         estimate D2E/DX2                !
 ! R155  R(109,110)              1.2123         estimate D2E/DX2                !
 ! R156  R(109,111)              1.5097         estimate D2E/DX2                !
 ! R157  R(111,112)              1.0917         estimate D2E/DX2                !
 ! R158  R(111,113)              1.0894         estimate D2E/DX2                !
 ! R159  R(111,114)              1.0869         estimate D2E/DX2                !
 ! R160  R(116,117)              0.9714         estimate D2E/DX2                !
 ! R161  R(117,118)              1.3329         estimate D2E/DX2                !
 ! R162  R(118,119)              1.2033         estimate D2E/DX2                !
 ! R163  R(118,120)              1.5404         estimate D2E/DX2                !
 ! R164  R(120,121)              1.0939         estimate D2E/DX2                !
 ! R165  R(120,122)              1.5308         estimate D2E/DX2                !
 ! R166  R(120,125)              1.4524         estimate D2E/DX2                !
 ! R167  R(122,123)              1.0855         estimate D2E/DX2                !
 ! R168  R(122,124)              1.0892         estimate D2E/DX2                !
 ! R169  R(122,133)              1.8478         estimate D2E/DX2                !
 ! R170  R(125,126)              1.0095         estimate D2E/DX2                !
 ! R171  R(125,127)              1.387          estimate D2E/DX2                !
 ! R172  R(127,128)              1.2123         estimate D2E/DX2                !
 ! R173  R(127,129)              1.51           estimate D2E/DX2                !
 ! R174  R(129,130)              1.0874         estimate D2E/DX2                !
 ! R175  R(129,131)              1.0909         estimate D2E/DX2                !
 ! R176  R(129,132)              1.0929         estimate D2E/DX2                !
 ! R177  R(134,135)              0.9663         estimate D2E/DX2                !
 ! R178  R(135,136)              1.352          estimate D2E/DX2                !
 ! R179  R(136,137)              1.195          estimate D2E/DX2                !
 ! R180  R(136,138)              1.5414         estimate D2E/DX2                !
 ! R181  R(138,139)              1.0911         estimate D2E/DX2                !
 ! R182  R(138,140)              1.5343         estimate D2E/DX2                !
 ! R183  R(138,143)              1.4481         estimate D2E/DX2                !
 ! R184  R(140,141)              1.0885         estimate D2E/DX2                !
 ! R185  R(140,142)              1.0875         estimate D2E/DX2                !
 ! R186  R(140,151)              1.8478         estimate D2E/DX2                !
 ! R187  R(143,144)              1.0105         estimate D2E/DX2                !
 ! R188  R(143,145)              1.3799         estimate D2E/DX2                !
 ! R189  R(145,146)              1.2138         estimate D2E/DX2                !
 ! R190  R(145,147)              1.5118         estimate D2E/DX2                !
 ! R191  R(147,148)              1.0869         estimate D2E/DX2                !
 ! R192  R(147,149)              1.0923         estimate D2E/DX2                !
 ! R193  R(147,150)              1.09           estimate D2E/DX2                !
 ! R194  R(152,153)              0.9781         estimate D2E/DX2                !
 ! R195  R(153,154)              1.3425         estimate D2E/DX2                !
 ! R196  R(154,155)              1.1997         estimate D2E/DX2                !
 ! R197  R(154,156)              1.5428         estimate D2E/DX2                !
 ! R198  R(156,157)              1.092          estimate D2E/DX2                !
 ! R199  R(156,158)              1.5395         estimate D2E/DX2                !
 ! R200  R(156,161)              1.4467         estimate D2E/DX2                !
 ! R201  R(158,159)              1.0858         estimate D2E/DX2                !
 ! R202  R(158,160)              1.0937         estimate D2E/DX2                !
 ! R203  R(158,169)              1.8369         estimate D2E/DX2                !
 ! R204  R(161,162)              1.01           estimate D2E/DX2                !
 ! R205  R(161,163)              1.3688         estimate D2E/DX2                !
 ! R206  R(163,164)              1.2261         estimate D2E/DX2                !
 ! R207  R(163,165)              1.5028         estimate D2E/DX2                !
 ! R208  R(165,166)              1.0872         estimate D2E/DX2                !
 ! R209  R(165,167)              1.0876         estimate D2E/DX2                !
 ! R210  R(165,168)              1.0919         estimate D2E/DX2                !
 ! R211  R(170,171)              0.9777         estimate D2E/DX2                !
 ! R212  R(171,172)              1.3427         estimate D2E/DX2                !
 ! R213  R(172,173)              1.1958         estimate D2E/DX2                !
 ! R214  R(172,174)              1.5574         estimate D2E/DX2                !
 ! R215  R(174,175)              1.0942         estimate D2E/DX2                !
 ! R216  R(174,176)              1.5413         estimate D2E/DX2                !
 ! R217  R(174,179)              1.4503         estimate D2E/DX2                !
 ! R218  R(176,177)              1.0868         estimate D2E/DX2                !
 ! R219  R(176,178)              1.0881         estimate D2E/DX2                !
 ! R220  R(176,187)              1.8438         estimate D2E/DX2                !
 ! R221  R(179,180)              1.0042         estimate D2E/DX2                !
 ! R222  R(179,181)              1.366          estimate D2E/DX2                !
 ! R223  R(181,182)              1.2165         estimate D2E/DX2                !
 ! R224  R(181,183)              1.5101         estimate D2E/DX2                !
 ! R225  R(183,184)              1.0883         estimate D2E/DX2                !
 ! R226  R(183,185)              1.0866         estimate D2E/DX2                !
 ! R227  R(183,186)              1.0902         estimate D2E/DX2                !
 ! R228  R(188,189)              0.9739         estimate D2E/DX2                !
 ! R229  R(189,190)              1.3253         estimate D2E/DX2                !
 ! R230  R(190,191)              1.2096         estimate D2E/DX2                !
 ! R231  R(190,192)              1.5386         estimate D2E/DX2                !
 ! R232  R(192,193)              1.0937         estimate D2E/DX2                !
 ! R233  R(192,194)              1.5343         estimate D2E/DX2                !
 ! R234  R(192,197)              1.4491         estimate D2E/DX2                !
 ! R235  R(194,195)              1.0861         estimate D2E/DX2                !
 ! R236  R(194,196)              1.0868         estimate D2E/DX2                !
 ! R237  R(194,205)              1.8464         estimate D2E/DX2                !
 ! R238  R(197,198)              1.0102         estimate D2E/DX2                !
 ! R239  R(197,199)              1.3869         estimate D2E/DX2                !
 ! R240  R(199,200)              1.213          estimate D2E/DX2                !
 ! R241  R(199,201)              1.5097         estimate D2E/DX2                !
 ! R242  R(201,202)              1.0861         estimate D2E/DX2                !
 ! R243  R(201,203)              1.0917         estimate D2E/DX2                !
 ! R244  R(201,204)              1.0924         estimate D2E/DX2                !
 ! R245  R(206,207)              0.9715         estimate D2E/DX2                !
 ! R246  R(207,208)              1.3473         estimate D2E/DX2                !
 ! R247  R(208,209)              1.1968         estimate D2E/DX2                !
 ! R248  R(208,210)              1.5528         estimate D2E/DX2                !
 ! R249  R(210,211)              1.0908         estimate D2E/DX2                !
 ! R250  R(210,212)              1.5473         estimate D2E/DX2                !
 ! R251  R(210,215)              1.4402         estimate D2E/DX2                !
 ! R252  R(212,213)              1.0832         estimate D2E/DX2                !
 ! R253  R(212,214)              1.0883         estimate D2E/DX2                !
 ! R254  R(212,223)              1.8572         estimate D2E/DX2                !
 ! R255  R(215,216)              1.0107         estimate D2E/DX2                !
 ! R256  R(215,217)              1.377          estimate D2E/DX2                !
 ! R257  R(217,218)              1.2153         estimate D2E/DX2                !
 ! R258  R(217,219)              1.5111         estimate D2E/DX2                !
 ! R259  R(219,220)              1.0928         estimate D2E/DX2                !
 ! R260  R(219,221)              1.0866         estimate D2E/DX2                !
 ! R261  R(219,222)              1.0902         estimate D2E/DX2                !
 ! R262  R(224,225)              0.9815         estimate D2E/DX2                !
 ! R263  R(225,226)              1.3334         estimate D2E/DX2                !
 ! R264  R(226,227)              1.2009         estimate D2E/DX2                !
 ! R265  R(226,228)              1.5412         estimate D2E/DX2                !
 ! R266  R(228,229)              1.0904         estimate D2E/DX2                !
 ! R267  R(228,230)              1.5625         estimate D2E/DX2                !
 ! R268  R(228,233)              1.4434         estimate D2E/DX2                !
 ! R269  R(230,231)              1.0865         estimate D2E/DX2                !
 ! R270  R(230,232)              1.0884         estimate D2E/DX2                !
 ! R271  R(230,241)              1.8468         estimate D2E/DX2                !
 ! R272  R(233,234)              1.0126         estimate D2E/DX2                !
 ! R273  R(233,235)              1.3699         estimate D2E/DX2                !
 ! R274  R(235,236)              1.2155         estimate D2E/DX2                !
 ! R275  R(235,237)              1.5171         estimate D2E/DX2                !
 ! R276  R(237,238)              1.0932         estimate D2E/DX2                !
 ! R277  R(237,239)              1.0867         estimate D2E/DX2                !
 ! R278  R(237,240)              1.0904         estimate D2E/DX2                !
 ! R279  R(242,243)              0.9773         estimate D2E/DX2                !
 ! R280  R(243,244)              1.3499         estimate D2E/DX2                !
 ! R281  R(244,245)              1.195          estimate D2E/DX2                !
 ! R282  R(244,246)              1.5526         estimate D2E/DX2                !
 ! R283  R(246,247)              1.0918         estimate D2E/DX2                !
 ! R284  R(246,248)              1.5446         estimate D2E/DX2                !
 ! R285  R(246,251)              1.4404         estimate D2E/DX2                !
 ! R286  R(248,249)              1.0852         estimate D2E/DX2                !
 ! R287  R(248,250)              1.0905         estimate D2E/DX2                !
 ! R288  R(248,259)              1.845          estimate D2E/DX2                !
 ! R289  R(251,252)              1.0119         estimate D2E/DX2                !
 ! R290  R(251,253)              1.3849         estimate D2E/DX2                !
 ! R291  R(253,254)              1.2113         estimate D2E/DX2                !
 ! R292  R(253,255)              1.5135         estimate D2E/DX2                !
 ! R293  R(255,256)              1.086          estimate D2E/DX2                !
 ! R294  R(255,257)              1.0922         estimate D2E/DX2                !
 ! R295  R(255,258)              1.0918         estimate D2E/DX2                !
 ! R296  R(260,261)              0.9751         estimate D2E/DX2                !
 ! R297  R(261,262)              1.3364         estimate D2E/DX2                !
 ! R298  R(262,263)              1.2023         estimate D2E/DX2                !
 ! R299  R(262,264)              1.5463         estimate D2E/DX2                !
 ! R300  R(264,265)              1.0907         estimate D2E/DX2                !
 ! R301  R(264,266)              1.5314         estimate D2E/DX2                !
 ! R302  R(264,269)              1.4512         estimate D2E/DX2                !
 ! R303  R(266,267)              1.0872         estimate D2E/DX2                !
 ! R304  R(266,268)              1.0846         estimate D2E/DX2                !
 ! R305  R(266,277)              1.858          estimate D2E/DX2                !
 ! R306  R(269,270)              1.0145         estimate D2E/DX2                !
 ! R307  R(269,271)              1.3872         estimate D2E/DX2                !
 ! R308  R(271,272)              1.215          estimate D2E/DX2                !
 ! R309  R(271,273)              1.5071         estimate D2E/DX2                !
 ! R310  R(273,274)              1.0881         estimate D2E/DX2                !
 ! R311  R(273,275)              1.0892         estimate D2E/DX2                !
 ! R312  R(273,276)              1.0927         estimate D2E/DX2                !
 ! R313  R(278,279)              0.9731         estimate D2E/DX2                !
 ! R314  R(279,280)              1.3436         estimate D2E/DX2                !
 ! R315  R(280,281)              1.1989         estimate D2E/DX2                !
 ! R316  R(280,282)              1.5379         estimate D2E/DX2                !
 ! R317  R(282,283)              1.0908         estimate D2E/DX2                !
 ! R318  R(282,284)              1.5333         estimate D2E/DX2                !
 ! R319  R(282,287)              1.4551         estimate D2E/DX2                !
 ! R320  R(284,285)              1.0899         estimate D2E/DX2                !
 ! R321  R(284,286)              1.0855         estimate D2E/DX2                !
 ! R322  R(284,295)              1.8362         estimate D2E/DX2                !
 ! R323  R(287,288)              1.0103         estimate D2E/DX2                !
 ! R324  R(287,289)              1.3903         estimate D2E/DX2                !
 ! R325  R(289,290)              1.2137         estimate D2E/DX2                !
 ! R326  R(289,291)              1.5084         estimate D2E/DX2                !
 ! R327  R(291,292)              1.0919         estimate D2E/DX2                !
 ! R328  R(291,293)              1.0863         estimate D2E/DX2                !
 ! R329  R(291,294)              1.0928         estimate D2E/DX2                !
 ! R330  R(296,297)              0.9699         estimate D2E/DX2                !
 ! R331  R(297,298)              1.351          estimate D2E/DX2                !
 ! R332  R(298,299)              1.1974         estimate D2E/DX2                !
 ! R333  R(298,300)              1.5408         estimate D2E/DX2                !
 ! R334  R(300,301)              1.0917         estimate D2E/DX2                !
 ! R335  R(300,302)              1.5316         estimate D2E/DX2                !
 ! R336  R(300,305)              1.4458         estimate D2E/DX2                !
 ! R337  R(302,303)              1.0899         estimate D2E/DX2                !
 ! R338  R(302,304)              1.0872         estimate D2E/DX2                !
 ! R339  R(302,313)              1.8569         estimate D2E/DX2                !
 ! R340  R(305,306)              1.01           estimate D2E/DX2                !
 ! R341  R(305,307)              1.3824         estimate D2E/DX2                !
 ! R342  R(307,308)              1.214          estimate D2E/DX2                !
 ! R343  R(307,309)              1.5107         estimate D2E/DX2                !
 ! R344  R(309,310)              1.0906         estimate D2E/DX2                !
 ! R345  R(309,311)              1.0891         estimate D2E/DX2                !
 ! R346  R(309,312)              1.0899         estimate D2E/DX2                !
 ! R347  R(314,315)              0.9761         estimate D2E/DX2                !
 ! R348  R(315,316)              1.349          estimate D2E/DX2                !
 ! R349  R(316,317)              1.1937         estimate D2E/DX2                !
 ! R350  R(316,318)              1.5539         estimate D2E/DX2                !
 ! R351  R(318,319)              1.0938         estimate D2E/DX2                !
 ! R352  R(318,320)              1.5526         estimate D2E/DX2                !
 ! R353  R(318,323)              1.4436         estimate D2E/DX2                !
 ! R354  R(320,321)              1.0854         estimate D2E/DX2                !
 ! R355  R(320,322)              1.0879         estimate D2E/DX2                !
 ! R356  R(320,331)              1.8501         estimate D2E/DX2                !
 ! R357  R(323,324)              1.0095         estimate D2E/DX2                !
 ! R358  R(323,325)              1.387          estimate D2E/DX2                !
 ! R359  R(325,326)              1.2137         estimate D2E/DX2                !
 ! R360  R(325,327)              1.5083         estimate D2E/DX2                !
 ! R361  R(327,328)              1.0922         estimate D2E/DX2                !
 ! R362  R(327,329)              1.0866         estimate D2E/DX2                !
 ! R363  R(327,330)              1.0888         estimate D2E/DX2                !
 ! R364  R(332,333)              0.9868         estimate D2E/DX2                !
 ! R365  R(333,334)              1.3255         estimate D2E/DX2                !
 ! R366  R(334,335)              1.207          estimate D2E/DX2                !
 ! R367  R(334,336)              1.5499         estimate D2E/DX2                !
 ! R368  R(336,337)              1.0921         estimate D2E/DX2                !
 ! R369  R(336,338)              1.5297         estimate D2E/DX2                !
 ! R370  R(336,341)              1.4506         estimate D2E/DX2                !
 ! R371  R(338,339)              1.088          estimate D2E/DX2                !
 ! R372  R(338,340)              1.0868         estimate D2E/DX2                !
 ! R373  R(338,349)              1.8426         estimate D2E/DX2                !
 ! R374  R(341,342)              1.0093         estimate D2E/DX2                !
 ! R375  R(341,343)              1.383          estimate D2E/DX2                !
 ! R376  R(343,344)              1.2121         estimate D2E/DX2                !
 ! R377  R(343,345)              1.5103         estimate D2E/DX2                !
 ! R378  R(345,346)              1.0899         estimate D2E/DX2                !
 ! R379  R(345,347)              1.0895         estimate D2E/DX2                !
 ! R380  R(345,348)              1.0898         estimate D2E/DX2                !
 ! A1    A(2,1,3)              119.4715         estimate D2E/DX2                !
 ! A2    A(2,1,14)             116.1304         estimate D2E/DX2                !
 ! A3    A(2,1,15)              67.1686         estimate D2E/DX2                !
 ! A4    A(2,1,19)             115.0439         estimate D2E/DX2                !
 ! A5    A(2,1,22)             110.1356         estimate D2E/DX2                !
 ! A6    A(2,1,23)             114.4644         estimate D2E/DX2                !
 ! A7    A(3,1,10)             115.7807         estimate D2E/DX2                !
 ! A8    A(3,1,11)             119.3322         estimate D2E/DX2                !
 ! A9    A(3,1,14)             116.0077         estimate D2E/DX2                !
 ! A10   A(3,1,19)             115.9049         estimate D2E/DX2                !
 ! A11   A(6,1,7)              119.4096         estimate D2E/DX2                !
 ! A12   A(6,1,15)             118.1709         estimate D2E/DX2                !
 ! A13   A(6,1,18)             115.2114         estimate D2E/DX2                !
 ! A14   A(6,1,22)             113.0775         estimate D2E/DX2                !
 ! A15   A(6,1,23)             117.1244         estimate D2E/DX2                !
 ! A16   A(7,1,10)             109.6249         estimate D2E/DX2                !
 ! A17   A(7,1,11)             122.8028         estimate D2E/DX2                !
 ! A18   A(7,1,14)              68.5279         estimate D2E/DX2                !
 ! A19   A(7,1,15)             117.7077         estimate D2E/DX2                !
 ! A20   A(7,1,18)             112.4566         estimate D2E/DX2                !
 ! A21   A(7,1,23)              73.7913         estimate D2E/DX2                !
 ! A22   A(10,1,11)            116.5685         estimate D2E/DX2                !
 ! A23   A(10,1,14)            116.51           estimate D2E/DX2                !
 ! A24   A(10,1,15)            116.466          estimate D2E/DX2                !
 ! A25   A(11,1,15)             68.5255         estimate D2E/DX2                !
 ! A26   A(11,1,18)            116.0464         estimate D2E/DX2                !
 ! A27   A(11,1,19)            112.3279         estimate D2E/DX2                !
 ! A28   A(14,1,15)            118.7423         estimate D2E/DX2                !
 ! A29   A(14,1,22)            120.0404         estimate D2E/DX2                !
 ! A30   A(15,1,22)            113.016          estimate D2E/DX2                !
 ! A31   A(18,1,19)            122.0015         estimate D2E/DX2                !
 ! A32   A(18,1,23)            112.337          estimate D2E/DX2                !
 ! A33   A(19,1,23)            117.9882         estimate D2E/DX2                !
 ! A34   A(22,1,23)            124.5026         estimate D2E/DX2                !
 ! A35   A(1,2,187)            147.3284         estimate D2E/DX2                !
 ! A36   A(6,2,18)             112.0079         estimate D2E/DX2                !
 ! A37   A(6,2,187)            151.3009         estimate D2E/DX2                !
 ! A38   A(10,2,11)            109.8345         estimate D2E/DX2                !
 ! A39   A(10,2,187)           128.4192         estimate D2E/DX2                !
 ! A40   A(11,2,18)            106.598          estimate D2E/DX2                !
 ! A41   A(11,2,187)           121.5066         estimate D2E/DX2                !
 ! A42   A(18,2,187)            95.3433         estimate D2E/DX2                !
 ! A43   A(1,3,79)             151.0032         estimate D2E/DX2                !
 ! A44   A(7,3,15)             115.1466         estimate D2E/DX2                !
 ! A45   A(7,3,18)             108.0614         estimate D2E/DX2                !
 ! A46   A(7,3,23)              70.5157         estimate D2E/DX2                !
 ! A47   A(7,3,79)             147.4957         estimate D2E/DX2                !
 ! A48   A(15,3,22)            105.609          estimate D2E/DX2                !
 ! A49   A(15,3,79)             96.6793         estimate D2E/DX2                !
 ! A50   A(18,3,23)            103.7753         estimate D2E/DX2                !
 ! A51   A(18,3,79)             94.4764         estimate D2E/DX2                !
 ! A52   A(22,3,23)            111.1488         estimate D2E/DX2                !
 ! A53   A(22,3,79)            120.4874         estimate D2E/DX2                !
 ! A54   A(23,3,79)            127.2244         estimate D2E/DX2                !
 ! A55   A(1,6,295)            146.6805         estimate D2E/DX2                !
 ! A56   A(2,6,14)             108.7627         estimate D2E/DX2                !
 ! A57   A(2,6,19)             110.2563         estimate D2E/DX2                !
 ! A58   A(2,6,295)            153.34           estimate D2E/DX2                !
 ! A59   A(10,6,11)            112.2225         estimate D2E/DX2                !
 ! A60   A(10,6,14)            107.9784         estimate D2E/DX2                !
 ! A61   A(10,6,295)           126.8728         estimate D2E/DX2                !
 ! A62   A(11,6,19)            105.3937         estimate D2E/DX2                !
 ! A63   A(11,6,295)           120.1835         estimate D2E/DX2                !
 ! A64   A(14,6,295)            93.0357         estimate D2E/DX2                !
 ! A65   A(19,6,295)            94.4275         estimate D2E/DX2                !
 ! A66   A(1,7,205)            148.9324         estimate D2E/DX2                !
 ! A67   A(3,7,19)             113.8282         estimate D2E/DX2                !
 ! A68   A(3,7,205)            152.0829         estimate D2E/DX2                !
 ! A69   A(19,7,205)            90.9263         estimate D2E/DX2                !
 ! A70   A(22,7,205)           121.6443         estimate D2E/DX2                !
 ! A71   A(1,10,61)            145.6966         estimate D2E/DX2                !
 ! A72   A(2,10,19)            103.3202         estimate D2E/DX2                !
 ! A73   A(2,10,22)            106.7846         estimate D2E/DX2                !
 ! A74   A(2,10,61)            105.4716         estimate D2E/DX2                !
 ! A75   A(6,10,18)            102.796          estimate D2E/DX2                !
 ! A76   A(6,10,22)            109.6712         estimate D2E/DX2                !
 ! A77   A(6,10,61)             88.4967         estimate D2E/DX2                !
 ! A78   A(18,10,19)           105.1358         estimate D2E/DX2                !
 ! A79   A(18,10,61)           144.608          estimate D2E/DX2                !
 ! A80   A(19,10,61)           109.3391         estimate D2E/DX2                !
 ! A81   A(22,10,61)           147.7427         estimate D2E/DX2                !
 ! A82   A(1,11,151)           147.3037         estimate D2E/DX2                !
 ! A83   A(2,11,14)            107.1389         estimate D2E/DX2                !
 ! A84   A(2,11,23)            106.3764         estimate D2E/DX2                !
 ! A85   A(2,11,151)            94.1454         estimate D2E/DX2                !
 ! A86   A(6,11,23)            112.421          estimate D2E/DX2                !
 ! A87   A(6,11,151)            93.3248         estimate D2E/DX2                !
 ! A88   A(14,11,151)          127.0842         estimate D2E/DX2                !
 ! A89   A(23,11,151)          153.1            estimate D2E/DX2                !
 ! A90   A(1,14,43)            141.7562         estimate D2E/DX2                !
 ! A91   A(6,14,23)            104.2977         estimate D2E/DX2                !
 ! A92   A(6,14,43)            144.6311         estimate D2E/DX2                !
 ! A93   A(11,14,19)           109.6201         estimate D2E/DX2                !
 ! A94   A(11,14,43)           101.9079         estimate D2E/DX2                !
 ! A95   A(19,14,23)           110.4243         estimate D2E/DX2                !
 ! A96   A(19,14,43)           148.401          estimate D2E/DX2                !
 ! A97   A(23,14,43)            84.4356         estimate D2E/DX2                !
 ! A98   A(1,15,133)           145.6483         estimate D2E/DX2                !
 ! A99   A(3,15,133)           136.7897         estimate D2E/DX2                !
 ! A100  A(18,15,23)           111.5594         estimate D2E/DX2                !
 ! A101  A(18,15,133)          150.8574         estimate D2E/DX2                !
 ! A102  A(23,15,133)           97.5283         estimate D2E/DX2                !
 ! A103  A(1,18,313)           144.9786         estimate D2E/DX2                !
 ! A104  A(2,18,3)             110.4059         estimate D2E/DX2                !
 ! A105  A(2,18,15)             66.4813         estimate D2E/DX2                !
 ! A106  A(2,18,22)            103.4864         estimate D2E/DX2                !
 ! A107  A(2,18,313)           108.4859         estimate D2E/DX2                !
 ! A108  A(3,18,10)            106.1732         estimate D2E/DX2                !
 ! A109  A(3,18,313)           139.9534         estimate D2E/DX2                !
 ! A110  A(10,18,15)           113.3639         estimate D2E/DX2                !
 ! A111  A(10,18,313)           86.3752         estimate D2E/DX2                !
 ! A112  A(15,18,22)           112.8391         estimate D2E/DX2                !
 ! A113  A(15,18,313)          147.4689         estimate D2E/DX2                !
 ! A114  A(22,18,313)           99.6507         estimate D2E/DX2                !
 ! A115  A(1,19,349)           146.2082         estimate D2E/DX2                !
 ! A116  A(6,19,7)             113.932          estimate D2E/DX2                !
 ! A117  A(6,19,22)            101.323          estimate D2E/DX2                !
 ! A118  A(6,19,349)           113.7714         estimate D2E/DX2                !
 ! A119  A(7,19,10)            104.7356         estimate D2E/DX2                !
 ! A120  A(7,19,14)             67.9027         estimate D2E/DX2                !
 ! A121  A(7,19,349)           130.1767         estimate D2E/DX2                !
 ! A122  A(10,19,14)           110.0295         estimate D2E/DX2                !
 ! A123  A(10,19,349)           88.3197         estimate D2E/DX2                !
 ! A124  A(14,19,22)           110.0197         estimate D2E/DX2                !
 ! A125  A(14,19,349)          151.1944         estimate D2E/DX2                !
 ! A126  A(22,19,349)           98.7334         estimate D2E/DX2                !
 ! A127  A(1,22,169)           149.5385         estimate D2E/DX2                !
 ! A128  A(3,22,10)            113.5466         estimate D2E/DX2                !
 ! A129  A(3,22,19)            102.6737         estimate D2E/DX2                !
 ! A130  A(3,22,169)            97.8254         estimate D2E/DX2                !
 ! A131  A(7,22,10)            112.283          estimate D2E/DX2                !
 ! A132  A(7,22,18)            107.9669         estimate D2E/DX2                !
 ! A133  A(7,22,169)            93.4531         estimate D2E/DX2                !
 ! A134  A(10,22,169)          146.6752         estimate D2E/DX2                !
 ! A135  A(18,22,19)           111.0746         estimate D2E/DX2                !
 ! A136  A(18,22,169)          126.4291         estimate D2E/DX2                !
 ! A137  A(19,22,169)          121.5147         estimate D2E/DX2                !
 ! A138  A(1,23,97)            141.674          estimate D2E/DX2                !
 ! A139  A(3,23,11)            111.3823         estimate D2E/DX2                !
 ! A140  A(3,23,14)            103.9452         estimate D2E/DX2                !
 ! A141  A(3,23,97)             90.1554         estimate D2E/DX2                !
 ! A142  A(11,23,15)            68.1836         estimate D2E/DX2                !
 ! A143  A(11,23,97)           157.9365         estimate D2E/DX2                !
 ! A144  A(14,23,15)           112.3286         estimate D2E/DX2                !
 ! A145  A(14,23,97)           122.2889         estimate D2E/DX2                !
 ! A146  A(15,23,97)           122.7503         estimate D2E/DX2                !
 ! A147  A(26,27,28)           108.38           estimate D2E/DX2                !
 ! A148  A(27,28,29)           122.1926         estimate D2E/DX2                !
 ! A149  A(27,28,30)           116.4145         estimate D2E/DX2                !
 ! A150  A(29,28,30)           121.3227         estimate D2E/DX2                !
 ! A151  A(28,30,31)           104.7214         estimate D2E/DX2                !
 ! A152  A(28,30,32)           106.566          estimate D2E/DX2                !
 ! A153  A(28,30,35)           113.0443         estimate D2E/DX2                !
 ! A154  A(31,30,32)           109.6762         estimate D2E/DX2                !
 ! A155  A(31,30,35)           109.7768         estimate D2E/DX2                !
 ! A156  A(32,30,35)           112.7021         estimate D2E/DX2                !
 ! A157  A(30,32,33)           111.5729         estimate D2E/DX2                !
 ! A158  A(30,32,34)           107.2465         estimate D2E/DX2                !
 ! A159  A(30,32,43)           118.1014         estimate D2E/DX2                !
 ! A160  A(33,32,34)           107.7933         estimate D2E/DX2                !
 ! A161  A(33,32,43)           107.2776         estimate D2E/DX2                !
 ! A162  A(34,32,43)           104.2072         estimate D2E/DX2                !
 ! A163  A(30,35,36)           117.1051         estimate D2E/DX2                !
 ! A164  A(30,35,37)           118.9807         estimate D2E/DX2                !
 ! A165  A(36,35,37)           117.296          estimate D2E/DX2                !
 ! A166  A(35,37,38)           120.4985         estimate D2E/DX2                !
 ! A167  A(35,37,39)           115.6368         estimate D2E/DX2                !
 ! A168  A(38,37,39)           123.7794         estimate D2E/DX2                !
 ! A169  A(37,39,40)           109.4114         estimate D2E/DX2                !
 ! A170  A(37,39,41)           112.0035         estimate D2E/DX2                !
 ! A171  A(37,39,42)           109.1195         estimate D2E/DX2                !
 ! A172  A(40,39,41)           108.2441         estimate D2E/DX2                !
 ! A173  A(40,39,42)           108.7646         estimate D2E/DX2                !
 ! A174  A(41,39,42)           109.2412         estimate D2E/DX2                !
 ! A175  A(14,43,17)            99.1435         estimate D2E/DX2                !
 ! A176  A(14,43,32)           123.1768         estimate D2E/DX2                !
 ! A177  A(17,43,32)           109.5825         estimate D2E/DX2                !
 ! A178  A(44,45,46)           110.8838         estimate D2E/DX2                !
 ! A179  A(45,46,47)           120.5685         estimate D2E/DX2                !
 ! A180  A(45,46,48)           117.4813         estimate D2E/DX2                !
 ! A181  A(47,46,48)           121.9467         estimate D2E/DX2                !
 ! A182  A(46,48,49)           103.9796         estimate D2E/DX2                !
 ! A183  A(46,48,50)           111.3949         estimate D2E/DX2                !
 ! A184  A(46,48,53)           113.9763         estimate D2E/DX2                !
 ! A185  A(49,48,50)           106.6883         estimate D2E/DX2                !
 ! A186  A(49,48,53)           106.9683         estimate D2E/DX2                !
 ! A187  A(50,48,53)           113.0369         estimate D2E/DX2                !
 ! A188  A(48,50,51)           109.0168         estimate D2E/DX2                !
 ! A189  A(48,50,52)           108.5213         estimate D2E/DX2                !
 ! A190  A(48,50,61)           113.9421         estimate D2E/DX2                !
 ! A191  A(51,50,52)           108.9681         estimate D2E/DX2                !
 ! A192  A(51,50,61)           109.799          estimate D2E/DX2                !
 ! A193  A(52,50,61)           106.4675         estimate D2E/DX2                !
 ! A194  A(48,53,54)           118.6083         estimate D2E/DX2                !
 ! A195  A(48,53,55)           120.6762         estimate D2E/DX2                !
 ! A196  A(54,53,55)           119.1952         estimate D2E/DX2                !
 ! A197  A(53,55,56)           120.8021         estimate D2E/DX2                !
 ! A198  A(53,55,57)           115.3769         estimate D2E/DX2                !
 ! A199  A(56,55,57)           123.8167         estimate D2E/DX2                !
 ! A200  A(55,57,58)           108.6812         estimate D2E/DX2                !
 ! A201  A(55,57,59)           112.3488         estimate D2E/DX2                !
 ! A202  A(55,57,60)           108.8883         estimate D2E/DX2                !
 ! A203  A(58,57,59)           110.0258         estimate D2E/DX2                !
 ! A204  A(58,57,60)           108.1278         estimate D2E/DX2                !
 ! A205  A(59,57,60)           108.6744         estimate D2E/DX2                !
 ! A206  A(10,61,12)            90.7649         estimate D2E/DX2                !
 ! A207  A(10,61,50)           121.4074         estimate D2E/DX2                !
 ! A208  A(12,61,50)           104.661          estimate D2E/DX2                !
 ! A209  A(62,63,64)           111.4006         estimate D2E/DX2                !
 ! A210  A(63,64,65)           120.7769         estimate D2E/DX2                !
 ! A211  A(63,64,66)           116.1419         estimate D2E/DX2                !
 ! A212  A(65,64,66)           123.0802         estimate D2E/DX2                !
 ! A213  A(64,66,67)           107.8469         estimate D2E/DX2                !
 ! A214  A(64,66,68)           111.1461         estimate D2E/DX2                !
 ! A215  A(64,66,71)           111.783          estimate D2E/DX2                !
 ! A216  A(67,66,68)           108.2005         estimate D2E/DX2                !
 ! A217  A(67,66,71)           108.4366         estimate D2E/DX2                !
 ! A218  A(68,66,71)           109.3146         estimate D2E/DX2                !
 ! A219  A(66,68,69)           109.2439         estimate D2E/DX2                !
 ! A220  A(66,68,70)           110.5824         estimate D2E/DX2                !
 ! A221  A(66,68,79)           113.1188         estimate D2E/DX2                !
 ! A222  A(69,68,70)           107.9986         estimate D2E/DX2                !
 ! A223  A(69,68,79)           109.466          estimate D2E/DX2                !
 ! A224  A(70,68,79)           106.2802         estimate D2E/DX2                !
 ! A225  A(66,71,72)           116.9221         estimate D2E/DX2                !
 ! A226  A(66,71,73)           126.6164         estimate D2E/DX2                !
 ! A227  A(72,71,73)           111.9891         estimate D2E/DX2                !
 ! A228  A(71,73,74)           120.2396         estimate D2E/DX2                !
 ! A229  A(71,73,75)           117.3797         estimate D2E/DX2                !
 ! A230  A(74,73,75)           122.3437         estimate D2E/DX2                !
 ! A231  A(73,75,76)           111.8483         estimate D2E/DX2                !
 ! A232  A(73,75,77)           107.7615         estimate D2E/DX2                !
 ! A233  A(73,75,78)           110.918          estimate D2E/DX2                !
 ! A234  A(76,75,77)           109.0783         estimate D2E/DX2                !
 ! A235  A(76,75,78)           108.3158         estimate D2E/DX2                !
 ! A236  A(77,75,78)           108.8654         estimate D2E/DX2                !
 ! A237  A(3,79,4)              97.6641         estimate D2E/DX2                !
 ! A238  A(3,79,68)            110.731          estimate D2E/DX2                !
 ! A239  A(4,79,68)            105.6078         estimate D2E/DX2                !
 ! A240  A(80,81,82)           112.5779         estimate D2E/DX2                !
 ! A241  A(81,82,83)           120.68           estimate D2E/DX2                !
 ! A242  A(81,82,84)           116.7162         estimate D2E/DX2                !
 ! A243  A(83,82,84)           122.5968         estimate D2E/DX2                !
 ! A244  A(82,84,85)           109.4793         estimate D2E/DX2                !
 ! A245  A(82,84,86)           112.2517         estimate D2E/DX2                !
 ! A246  A(82,84,89)           110.0354         estimate D2E/DX2                !
 ! A247  A(85,84,86)           108.6554         estimate D2E/DX2                !
 ! A248  A(85,84,89)           106.7956         estimate D2E/DX2                !
 ! A249  A(86,84,89)           109.4633         estimate D2E/DX2                !
 ! A250  A(84,86,87)           108.627          estimate D2E/DX2                !
 ! A251  A(84,86,88)           110.6259         estimate D2E/DX2                !
 ! A252  A(84,86,97)           112.8961         estimate D2E/DX2                !
 ! A253  A(87,86,88)           109.4472         estimate D2E/DX2                !
 ! A254  A(87,86,97)           108.6507         estimate D2E/DX2                !
 ! A255  A(88,86,97)           106.53           estimate D2E/DX2                !
 ! A256  A(84,89,90)           118.5865         estimate D2E/DX2                !
 ! A257  A(84,89,91)           122.8024         estimate D2E/DX2                !
 ! A258  A(90,89,91)           118.5914         estimate D2E/DX2                !
 ! A259  A(89,91,92)           121.8562         estimate D2E/DX2                !
 ! A260  A(89,91,93)           115.8707         estimate D2E/DX2                !
 ! A261  A(92,91,93)           122.2725         estimate D2E/DX2                !
 ! A262  A(91,93,94)           113.2486         estimate D2E/DX2                !
 ! A263  A(91,93,95)           109.7212         estimate D2E/DX2                !
 ! A264  A(91,93,96)           108.1903         estimate D2E/DX2                !
 ! A265  A(94,93,95)           109.228          estimate D2E/DX2                !
 ! A266  A(94,93,96)           108.4653         estimate D2E/DX2                !
 ! A267  A(95,93,96)           107.8359         estimate D2E/DX2                !
 ! A268  A(23,97,24)            99.6206         estimate D2E/DX2                !
 ! A269  A(23,97,86)           112.8789         estimate D2E/DX2                !
 ! A270  A(24,97,86)           101.3913         estimate D2E/DX2                !
 ! A271  A(98,99,100)          108.59           estimate D2E/DX2                !
 ! A272  A(99,100,101)         122.4386         estimate D2E/DX2                !
 ! A273  A(99,100,102)         116.4643         estimate D2E/DX2                !
 ! A274  A(101,100,102)        121.0863         estimate D2E/DX2                !
 ! A275  A(100,102,103)        104.3712         estimate D2E/DX2                !
 ! A276  A(100,102,104)        107.6115         estimate D2E/DX2                !
 ! A277  A(100,102,107)        113.4321         estimate D2E/DX2                !
 ! A278  A(103,102,104)        109.8057         estimate D2E/DX2                !
 ! A279  A(103,102,107)        108.9801         estimate D2E/DX2                !
 ! A280  A(104,102,107)        112.3181         estimate D2E/DX2                !
 ! A281  A(102,104,105)        112.4916         estimate D2E/DX2                !
 ! A282  A(102,104,106)        107.7541         estimate D2E/DX2                !
 ! A283  A(102,104,115)        112.7478         estimate D2E/DX2                !
 ! A284  A(105,104,106)        107.4946         estimate D2E/DX2                !
 ! A285  A(105,104,115)        111.2446         estimate D2E/DX2                !
 ! A286  A(106,104,115)        104.5923         estimate D2E/DX2                !
 ! A287  A(102,107,108)        117.5371         estimate D2E/DX2                !
 ! A288  A(102,107,109)        120.1716         estimate D2E/DX2                !
 ! A289  A(108,107,109)        117.4501         estimate D2E/DX2                !
 ! A290  A(107,109,110)        121.047          estimate D2E/DX2                !
 ! A291  A(107,109,111)        115.517          estimate D2E/DX2                !
 ! A292  A(110,109,111)        123.3715         estimate D2E/DX2                !
 ! A293  A(109,111,112)        109.7225         estimate D2E/DX2                !
 ! A294  A(109,111,113)        112.8998         estimate D2E/DX2                !
 ! A295  A(109,111,114)        108.7541         estimate D2E/DX2                !
 ! A296  A(112,111,113)        107.4542         estimate D2E/DX2                !
 ! A297  A(112,111,114)        108.084          estimate D2E/DX2                !
 ! A298  A(113,111,114)        109.8157         estimate D2E/DX2                !
 ! A299  A(8,115,9)            100.7058         estimate D2E/DX2                !
 ! A300  A(8,115,104)          112.7626         estimate D2E/DX2                !
 ! A301  A(9,115,104)          105.9154         estimate D2E/DX2                !
 ! A302  A(116,117,118)        108.8665         estimate D2E/DX2                !
 ! A303  A(117,118,119)        121.7304         estimate D2E/DX2                !
 ! A304  A(117,118,120)        116.9285         estimate D2E/DX2                !
 ! A305  A(119,118,120)        121.3369         estimate D2E/DX2                !
 ! A306  A(118,120,121)        104.2725         estimate D2E/DX2                !
 ! A307  A(118,120,122)        110.5762         estimate D2E/DX2                !
 ! A308  A(118,120,125)        114.1702         estimate D2E/DX2                !
 ! A309  A(121,120,122)        106.9092         estimate D2E/DX2                !
 ! A310  A(121,120,125)        107.8986         estimate D2E/DX2                !
 ! A311  A(122,120,125)        112.3912         estimate D2E/DX2                !
 ! A312  A(120,122,123)        108.5942         estimate D2E/DX2                !
 ! A313  A(120,122,124)        109.2745         estimate D2E/DX2                !
 ! A314  A(120,122,133)        114.2931         estimate D2E/DX2                !
 ! A315  A(123,122,124)        109.0573         estimate D2E/DX2                !
 ! A316  A(123,122,133)        109.8375         estimate D2E/DX2                !
 ! A317  A(124,122,133)        105.6639         estimate D2E/DX2                !
 ! A318  A(120,125,126)        117.2833         estimate D2E/DX2                !
[...]
    243          8           0       -6.427837    3.877089    5.753530
    244          6           0       -5.764168    4.518562    6.738532
    245          8           0       -6.339447    4.938416    7.698115
    246          6           0       -4.237626    4.704686    6.524712
    247          1           0       -4.108299    5.315619    5.629103
    248          6           0       -3.495838    3.368873    6.298409
    249          1           0       -2.429606    3.538353    6.408657
    250          1           0       -3.808565    2.625861    7.032867
    251          7           0       -3.629082    5.392982    7.634098
    252          1           0       -3.595541    4.888166    8.510409
    253          6           0       -3.602592    6.762370    7.839380
    254          8           0       -3.306507    7.206083    8.926918
    255          6           0       -3.904942    7.653287    6.653837
    256          1           0       -3.788815    8.684299    6.974755
    257          1           0       -3.221049    7.459623    5.824549
    258          1           0       -4.926929    7.506320    6.298814
    259         16           0       -3.832065    2.626204    4.643288
    260          1           0        2.451715   -8.976596    4.933515
    261          8           0        2.241859   -9.608034    4.220792
    262          6           0        1.039533   -9.288268    3.732703
    263          8           0        0.521830   -9.920944    2.851112
    264          6           0        0.406570   -7.995627    4.297931
    265          1           0       -0.618395   -8.253323    4.567298
    266          6           0        0.403384   -7.010681    3.125342
    267          1           0        1.420191   -6.819863    2.791122
    268          1           0       -0.155523   -7.459978    2.311697
    269          7           0        1.096300   -7.493362    5.471810
    270          1           0        1.592180   -6.609524    5.424528
    271          6           0        0.686578   -7.919058    6.726920
    272          8           0       -0.080655   -8.852747    6.852862
    273          6           0        1.260466   -7.147487    7.887371
    274          1           0        1.431342   -7.832557    8.715234
    275          1           0        2.179713   -6.624221    7.627661
    276          1           0        0.530450   -6.396856    8.199644
    277         16           0       -0.374563   -5.379481    3.556767
    278          1           0        4.273193   -7.860488    0.923035
    279          8           0        5.091615   -7.334373    0.940556
    280          6           0        5.053276   -6.446265   -0.066930
    281          8           0        5.981688   -5.723413   -0.297100
    282          6           0        3.722730   -6.344840   -0.831384
    283          1           0        3.994918   -6.284361   -1.885902
    284          6           0        3.070342   -5.035918   -0.370755
    285          1           0        2.852587   -5.076047    0.696380
    286          1           0        3.763891   -4.218379   -0.540574
    287          7           0        2.848186   -7.483679   -0.595984
    288          1           0        1.894611   -7.262205   -0.346423
    289          6           0        3.036109   -8.660453   -1.312005
    290          8           0        4.054902   -8.837871   -1.947422
    291          6           0        1.925093   -9.672692   -1.184522
    292          1           0        0.954304   -9.227504   -1.411577
    293          1           0        2.117373  -10.493773   -1.869339
    294          1           0        1.872007  -10.059584   -0.163892
    295         16           0        1.471167   -4.685534   -1.202250
    296          1           0        3.663633    2.504246    6.172023
    297          8           0        3.431760    2.472126    7.113224
    298          6           0        2.315462    3.193770    7.354941
    299          8           0        1.776143    3.149226    8.423132
    300          6           0        1.750422    4.042645    6.199836
    301          1           0        1.284259    4.895233    6.697341
    302          6           0        0.616322    3.288441    5.499321
    303          1           0       -0.092778    2.982886    6.268573
    304          1           0        0.111810    3.948925    4.798493
    305          7           0        2.728745    4.615071    5.302307
    306          1           0        3.063444    4.062452    4.526020
    307          6           0        2.952336    5.979102    5.278562
    308          8           0        2.416809    6.732111    6.065935
    309          6           0        3.914029    6.464656    4.219480
    310          1           0        3.388267    7.164923    3.569424
    311          1           0        4.720817    7.012873    4.703883
    312          1           0        4.345497    5.665242    3.617239
    313         16           0        1.016369    1.687592    4.647616
    314          1           0        7.145572    0.445945    4.377238
    315          8           0        7.988041    0.683994    4.808813
    316          6           0        8.101120    2.015611    4.992975
    317          8           0        9.060322    2.480956    5.529858
    318          6           0        6.902458    2.874813    4.503523
    319          1           0        6.078590    2.616341    5.174891
    320          6           0        6.429209    2.538985    3.063416
    321          1           0        5.852775    3.373345    2.676685
    322          1           0        7.267247    2.358203    2.393611
    323          7           0        7.115884    4.288771    4.701247
    324          1           0        6.676643    4.688951    5.517344
    325          6           0        8.137454    5.107048    4.242328
    326          8           0        8.261017    6.212242    4.728505
    327          6           0        8.997664    4.626564    3.100379
    328          1           0        8.471385    4.771888    2.154445
    329          1           0        9.895429    5.238575    3.084821
    330          1           0        9.285931    3.580568    3.191280
    331         16           0        5.389980    1.008734    3.031471
    332          1           0        7.800394    1.591171   -4.224560
    333          8           0        7.516818    0.897247   -4.866251
    334          6           0        7.037605   -0.251276   -4.409865
    335          8           0        6.616180   -1.094343   -5.163827
    336          6           0        6.884034   -0.506246   -2.888789
    337          1           0        7.121444   -1.565821   -2.772250
    338          6           0        5.402524   -0.268141   -2.591267
    339          1           0        5.177511    0.795481   -2.547709
    340          1           0        4.828218   -0.685048   -3.414420
    341          7           0        7.736794    0.294496   -2.030917
    342          1           0        7.328441    0.629553   -1.170877
    343          6           0        9.100798    0.066176   -2.020880
    344          8           0        9.616324   -0.655729   -2.846882
    345          6           0        9.889045    0.799281   -0.961530
    346          1           0       10.584426    1.474796   -1.459637
    347          1           0        9.269408    1.380751   -0.279734
    348          1           0       10.476297    0.075624   -0.396688
    349         16           0        4.716054   -1.112161   -1.104179
 ---------------------------------------------------------------------
 Rotational constants (GHZ):           0.0025804           0.0025259           0.0024744

 Test job not archived.
 1\1\GINC-MEL0187\FOpt\RB3LYP\def2TZVP\C90H144Au25N18O54S18(1-)\ROOT\17
 -May-2025\0\\#T B3LYP/Def2TZVP opt IOp(1/7=10000000)\\TEST\\-1,1\Au,0.
 18089,0.048974,0.029497\Au,0.861886,-1.562146,-2.24584\Au,0.812653,2.8
 41162,0.018032\Au,2.699856,3.800276,-2.951962\Au,2.874084,0.473379,-4.
 546167\Au,-0.51944,-2.760078,-0.034056\Au,-0.885672,1.73385,2.131122\A
 u,-2.016781,-3.582907,3.211713\Au,-2.323065,-0.303592,4.710816\Au,-2.0
 34048,-0.794304,-1.806554\Au,2.290986,-1.880942,0.48511\Au,-1.405562,-
 3.924321,-3.078314\Au,1.758427,-4.725231,-1.766905\Au,0.296011,-1.2623
 95,2.59368\Au,2.707714,0.885991,-1.253013\Au,5.37835,-0.603761,0.68257
 3\Au,3.776647,-1.668777,3.64858\Au,0.203122,1.368897,-2.537246\Au,-2.2
 90635,-0.685804,1.359034\Au,-5.110929,0.110308,-0.863905\Au,-3.19293,1
 .527292,-3.755007\Au,-2.027001,1.774908,-0.605717\Au,2.424523,0.80626,
 1.669346\Au,1.43337,4.120606,2.90522\Au,-1.845769,4.76524,1.429553\H,1
 .202524,-5.983358,6.428662\O,1.459604,-5.736593,7.332766\C,2.165837,-4
 .601874,7.275645\O,2.641396,-4.095002,8.253676\C,2.279846,-3.932129,5.
 887428\H,3.329429,-3.643492,5.804005\C,1.404846,-2.681541,5.934189\H,0
 .345036,-2.934117,5.939524\H,1.628441,-2.166105,6.865727\N,1.926338,-4
 .823995,4.794263\H,1.254459,-4.483971,4.122333\C,2.866229,-5.745893,4.
 345891\O,3.871995,-5.95987,4.986746\C,2.503071,-6.486636,3.081474\H,1.
 74858,-7.244086,3.308223\H,2.099157,-5.820039,2.319275\H,3.388615,-6.9
 81072,2.69188\S,1.65592,-1.393673,4.631361\H,-5.130956,-6.049859,-3.57
 5578\O,-4.380274,-6.189806,-4.18082\C,-4.139907,-5.09353,-4.901682\O,-
 3.255224,-5.079901,-5.720318\C,-5.042172,-3.867836,-4.65506\H,-5.50742
 3,-3.682304,-5.627386\C,-4.211788,-2.619118,-4.317592\H,-3.478819,-2.4
 59408,-5.101631\H,-4.879701,-1.760113,-4.277183\N,-6.115854,-4.107185,
 -3.711121\H,-6.021494,-3.7511,-2.77125\C,-7.355636,-4.542357,-4.147074
 \O,-7.524802,-4.883446,-5.300244\C,-8.445565,-4.539339,-3.103815\H,-9.
 208648,-5.256718,-3.395362\H,-8.068354,-4.778955,-2.109641\H,-8.904498
 ,-3.547717,-3.074407\S,-3.363974,-2.702356,-2.674186\H,1.031696,7.0755
 33,-1.103391\O,1.121069,7.915244,-0.610154\C,2.386734,8.099721,-0.1764
 6\O,2.660592,9.017575,0.538748\C,3.431229,7.057106,-0.653223\H,3.42986
 2,7.057254,-1.74458\C,3.061114,5.635397,-0.169894\H,3.937265,4.997529,
 -0.230518\H,2.731326,5.657479,0.87039\N,4.758435,7.384111,-0.199343\H,
 4.954559,7.242113,0.782675\C,5.625171,8.294683,-0.773799\O,6.626228,8.
 639879,-0.184593\C,5.293921,8.788456,-2.166683\H,4.309482,9.257631,-2.
 20783\H,6.047212,9.518757,-2.447159\H,5.313065,7.966724,-2.886742\S,1.
 681963,4.878815,-1.133696\H,5.709655,2.740514,3.720367\O,6.117406,3.10
 8171,4.519666\C,5.524692,2.67497,5.648513\O,5.836612,3.122895,6.71148\
 C,4.420782,1.599578,5.487203\H,4.769337,0.819187,4.80858\C,3.111767,2.
 187076,4.93089\H,2.31785,1.45654,5.066735\H,2.851417,3.107186,5.453373
 \N,4.161381,0.96374,6.755293\H,3.497173,1.388031,7.379117\C,4.801212,-
 0.168189,7.157033\O,5.578078,-0.764528,6.425289\C,4.496683,-0.633994,8
 .558557\H,3.716652,-0.050514,9.045512\H,4.202424,-1.682979,8.541591\H,
 5.40876,-0.552609,9.149917\S,3.221167,2.615099,3.133182\H,-6.195204,-5
 .424795,6.720088\O,-6.363437,-4.892439,7.514219\C,-5.289674,-4.131874,
 7.752982\O,-5.223262,-3.390868,8.691119\C,-4.130257,-4.233818,6.730521
 \H,-3.240355,-4.384372,7.344184\C,-4.036576,-2.89383,6.002782\H,-4.804
 122,-2.779961,5.239611\H,-4.186549,-2.107047,6.736748\N,-4.26625,-5.35
 3906,5.810968\H,-4.314621,-5.144931,4.825529\C,-3.816383,-6.6138,6.175
 904\O,-3.476558,-6.850593,7.315254\C,-3.847747,-7.656825,5.084872\H,-4
 .846695,-8.092292,5.020126\H,-3.603831,-7.251316,4.103605\H,-3.149736,
 -8.450111,5.339626\S,-2.34927,-2.571076,5.31096\H,8.984729,0.327485,-0
 .989366\O,8.847271,0.435134,-0.033787\C,8.010432,1.4525,0.169372\O,7.6
 8656,1.794072,1.276787\C,7.460274,2.163705,-1.081375\H,7.801742,3.1975
 41,-0.97584\C,5.930068,2.19513,-1.053019\H,5.609729,2.593467,-0.095381
 \H,5.569034,2.846487,-1.847862\N,7.979902,1.647829,-2.335678\H,7.36236
 1,1.074394,-2.891495\C,9.080425,2.228892,-2.9481\O,9.762886,3.044637,-
 2.366361\C,9.344173,1.779188,-4.365241\H,10.413467,1.827869,-4.556917\
 H,8.980039,0.77015,-4.563446\H,8.842632,2.467564,-5.050027\S,5.130411,
 0.555871,-1.349461\H,4.129033,-7.122425,-1.023104\O,4.689948,-7.229914
 ,-0.243621\C,5.639268,-6.26777,-0.211216\O,6.463852,-6.249282,0.65353\
 C,5.582579,-5.193112,-1.314699\H,6.628596,-4.941507,-1.496704\C,4.9241
 ,-3.908877,-0.794032\H,5.526215,-3.531164,0.03042\H,4.911634,-3.163788
 ,-1.586053\N,5.029398,-5.64469,-2.57443\H,4.048927,-5.488821,-2.762589
 \C,5.838078,-6.075261,-3.606331\O,7.043362,-6.150858,-3.484111\C,5.109
 983,-6.475726,-4.869253\H,5.785155,-6.364781,-5.713745\H,4.82562,-7.52
 7889,-4.796593\H,4.208239,-5.889941,-5.047558\S,3.23588,-4.090394,-0.0
 65069\H,-4.867892,5.45761,-0.65046\O,-5.826808,5.557542,-0.815181\C,-6
 .547734,4.839515,0.060587\O,-7.726121,4.675141,-0.09362\C,-5.763798,4.
 252828,1.252887\H,-5.288876,5.074533,1.79306\C,-4.685169,3.256949,0.78
 9254\H,-4.277386,2.768491,1.669019\H,-5.156535,2.489806,0.168421\N,-6.
 621074,3.511226,2.151822\H,-6.803687,2.556546,1.877225\C,-7.604314,3.9
 60841,2.991225\O,-8.383577,3.148392,3.476897\C,-7.682311,5.425505,3.31
 8395\H,-8.025304,5.529371,4.34478\H,-6.733753,5.944724,3.201877\H,-8.4
 20414,5.887461,2.659582\S,-3.292985,3.918336,-0.210125\H,3.176238,-3.0
 00168,-5.75385\O,3.419396,-3.34106,-6.637346\C,2.646129,-2.820006,-7.6
 03533\O,2.859705,-3.05199,-8.757018\C,1.527908,-1.825584,-7.171983\H,2
 .008218,-0.843264,-7.211563\C,0.91334,-1.990925,-5.768225\H,0.101413,-
 1.275567,-5.667293\H,0.516078,-2.996769,-5.648242\N,0.476741,-1.812207
 ,-8.171068\H,0.393661,-1.004745,-8.762276\C,-0.214066,-2.942494,-8.504
 541\O,-0.070382,-3.979737,-7.885303\C,-1.189157,-2.800371,-9.648842\H,
 -0.852407,-2.085343,-10.397047\H,-1.32827,-3.773521,-10.111679\H,-2.15
 1893,-2.46473,-9.262725\S,2.10019,-1.733352,-4.380906\H,-5.121773,3.21
 3083,5.926613\O,-4.972701,4.077885,5.504177\C,-3.712053,4.435821,5.701
 957\O,-3.296012,5.488505,5.275555\C,-2.822194,3.442942,6.469792\H,-2.3
 80128,4.035702,7.275654\C,-1.679746,2.938414,5.578504\H,-1.14283,3.792
 458,5.17618\H,-0.991839,2.332363,6.162159\N,-3.586212,2.358094,7.05219
 8\H,-3.462309,1.433509,6.664459\C,-4.150255,2.482981,8.313007\O,-4.173
 273,3.556602,8.87702\C,-4.729431,1.211324,8.884447\H,-5.240698,1.44531
 8,9.813695\H,-5.432602,0.746235,8.190875\H,-3.936705,0.487734,9.08793\
 S,-2.316574,1.971715,4.140068\H,7.351946,-3.806059,2.76372\O,8.315807,
 -3.927184,2.777671\C,8.943875,-3.008733,3.537395\O,10.139097,-2.992751
 ,3.59609\C,8.055823,-2.020267,4.340835\H,7.386165,-2.596829,4.980265\C
 ,7.1955,-1.090568,3.452133\H,6.75812,-0.338305,4.097148\H,7.804516,-0.
 599576,2.695512\N,8.875618,-1.184714,5.179943\H,9.425945,-0.473581,4.7
 18422\C,9.369099,-1.499789,6.426301\O,10.225984,-0.805921,6.937524\C,8
 .789021,-2.712462,7.116464\H,8.998899,-3.626252,6.554995\H,9.251399,-2
 .790173,8.096686\H,7.708471,-2.60983,7.218822\S,5.829726,-1.9635,2.545
 537\H,-1.686172,6.489354,5.752837\O,-0.961462,7.015534,6.154326\C,-0.5
 5512,8.054126,5.423476\O,0.204517,8.872205,5.86616\C,-1.03389,8.129867
 ,3.960464\H,-2.047464,7.734366,3.888533\C,-0.08501,7.290232,3.0461\H,-
 0.18591,7.624338,2.017233\H,0.948816,7.432715,3.35506\N,-1.008212,9.52
 137,3.577663\H,-0.370593,10.105561,4.104482\C,-1.887006,10.18708,2.764
 488\O,-1.833926,11.395277,2.642598\C,-2.931957,9.360951,2.038491\H,-3.
 772805,9.162068,2.708211\H,-3.295729,9.948683,1.199918\H,-2.552539,8.4
 05195,1.675718\S,-0.447754,5.482463,3.151427\H,5.810342,3.488326,-5.10
 3358\O,6.427837,3.877089,-5.75353\C,5.764168,4.518562,-6.738532\O,6.33
 9447,4.938416,-7.698115\C,4.237626,4.704686,-6.524712\H,4.108299,5.315
 619,-5.629103\C,3.495838,3.368873,-6.298409\H,2.429606,3.538353,-6.408
 657\H,3.808565,2.625861,-7.032867\N,3.629082,5.392982,-7.634098\H,3.59
 5541,4.888166,-8.510409\C,3.602592,6.76237,-7.83938\O,3.306507,7.20608
 3,-8.926918\C,3.904942,7.653287,-6.653837\H,3.788815,8.684299,-6.97475
 5\H,3.221049,7.459623,-5.824549\H,4.926929,7.50632,-6.298814\S,3.83206
 5,2.626204,-4.643288\H,-2.451715,-8.976596,-4.933515\O,-2.241859,-9.60
 8034,-4.220792\C,-1.039533,-9.288268,-3.732703\O,-0.52183,-9.920944,-2
 .851112\C,-0.40657,-7.995627,-4.297931\H,0.618395,-8.253323,-4.567298\
 C,-0.403384,-7.010681,-3.125342\H,-1.420191,-6.819863,-2.791122\H,0.15
 5523,-7.459978,-2.311697\N,-1.0963,-7.493362,-5.47181\H,-1.59218,-6.60
 9524,-5.424528\C,-0.686578,-7.919058,-6.72692\O,0.080655,-8.852747,-6.
 852862\C,-1.260466,-7.147487,-7.887371\H,-1.431342,-7.832557,-8.715234
 \H,-2.179713,-6.624221,-7.627661\H,-0.53045,-6.396856,-8.199644\S,0.37
 4563,-5.379481,-3.556767\H,-4.273193,-7.860488,-0.923035\O,-5.091615,-
 7.334373,-0.940556\C,-5.053276,-6.446265,0.06693\O,-5.981688,-5.723413
 ,0.2971\C,-3.72273,-6.34484,0.831384\H,-3.994918,-6.284361,1.885902\C,
 -3.070342,-5.035918,0.370755\H,-2.852587,-5.076047,-0.69638\H,-3.76389
 1,-4.218379,0.540574\N,-2.848186,-7.483679,0.595984\H,-1.894611,-7.262
 205,0.346423\C,-3.036109,-8.660453,1.312005\O,-4.054902,-8.837871,1.94
 7422\C,-1.925093,-9.672692,1.184522\H,-0.954304,-9.227504,1.411577\H,-
 2.117373,-10.493773,1.869339\H,-1.872007,-10.059584,0.163892\S,-1.4711
 67,-4.685534,1.20225\H,-3.663633,2.504246,-6.172023\O,-3.43176,2.47212
 6,-7.113224\C,-2.315462,3.19377,-7.354941\O,-1.776143,3.149226,-8.4231
 32\C,-1.750422,4.042645,-6.199836\H,-1.284259,4.895233,-6.697341\C,-0.
 616322,3.288441,-5.499321\H,0.092778,2.982886,-6.268573\H,-0.11181,3.9
 48925,-4.798493\N,-2.728745,4.615071,-5.302307\H,-3.063444,4.062452,-4
 .52602\C,-2.952336,5.979102,-5.278562\O,-2.416809,6.732111,-6.065935\C
 ,-3.914029,6.464656,-4.21948\H,-3.388267,7.164923,-3.569424\H,-4.72081
 7,7.012873,-4.703883\H,-4.345497,5.665242,-3.617239\S,-1.016369,1.6875
 92,-4.647616\H,-7.145572,0.445945,-4.377238\O,-7.988041,0.683994,-4.80
 8813\C,-8.10112,2.015611,-4.992975\O,-9.060322,2.480956,-5.529858\C,-6
 .902458,2.874813,-4.503523\H,-6.07859,2.616341,-5.174891\C,-6.429209,2
 .538985,-3.063416\H,-5.852775,3.373345,-2.676685\H,-7.267247,2.358203,
 -2.393611\N,-7.115884,4.288771,-4.701247\H,-6.676643,4.688951,-5.51734
 4\C,-8.137454,5.107048,-4.242328\O,-8.261017,6.212242,-4.728505\C,-8.9
 97664,4.626564,-3.100379\H,-8.471385,4.771888,-2.154445\H,-9.895429,5.
 238575,-3.084821\H,-9.285931,3.580568,-3.19128\S,-5.38998,1.008734,-3.
 031471\H,-7.800394,1.591171,4.22456\O,-7.516818,0.897247,4.866251\C,-7
 .037605,-0.251276,4.409865\O,-6.61618,-1.094343,5.163827\C,-6.884034,-
 0.506246,2.888789\H,-7.121444,-1.565821,2.77225\C,-5.402524,-0.268141,
 2.591267\H,-5.177511,0.795481,2.547709\H,-4.828218,-0.685048,3.41442\N
 ,-7.736794,0.294496,2.030917\H,-7.328441,0.629553,1.170877\C,-9.100798
 ,0.066176,2.02088\O,-9.616324,-0.655729,2.846882\C,-9.889045,0.799281,
 0.96153\H,-10.584426,1.474796,1.459637\H,-9.269408,1.380751,0.279734\H
 ,-10.476297,0.075624,0.396688\S,-4.716054,-1.112161,1.104179\\Version=
 ES64L-G16RevC.02\State=1-A\HF=-19132.3953044\RMSD=5.190e-10\RMSF=9.625
 e-04\Dipole=-6.4661704,-2.1079031,-3.3866884\Quadrupole=-27.5821297,-3
 .814303,31.3964327,18.7281127,-57.2422419,14.630516\PG=C01 [X(C90H144A
 u25N18O54S18)]\\@


 LORD, MAN... WERE YE BUT WHYLES WHERE I AM, 
 THE GENTILES YE WAD NE'ER ENVY 'EM.        
 IT'S TRUE, THEY NEEDNA STARVE OR SWEAT,     
 THRO' WINTER'S CAULD OR SIMMER'S HEAT...  
 THEY'VE NAE SAIR WARK TO CRAZE THEIR BANES, 
 AND FILL AULD AGE WITH GRIPS AN' GRANES...  
                                             
 BUT HUMAN BODIES ARE SIC FOOLS              
 FOR A' THEIR COLLEGES AND SCHOOLS,           
 THAT WHEN NAE REAL ILLS PERPLEX THEM,       
 THEY MAK ENOW THEMSELVES TO VEX THEM,       
 AN' AYE THE LESS THEY HAE TO STURT THEM,    
 IN LIKE PROPORTION LESS WILL HURT THEM....  
                                             
                (ROBERT BURNS 'THE TWA DOGS')
 Job cpu time:      20 days  6 hours  6 minutes  3.9 seconds.
 Elapsed time:       0 days 13 hours 51 minutes 23.0 seconds.
 File lengths (MBytes):  RWF=  29283 Int=      0 D2E=      0 Chk=   3800 Scr=      1
 Normal termination of Gaussian 16 at Sat May 17 08:57:00 2025.
