 Entering Gaussian System, Link 0=g16
 Initial command:
 /project/home/p200272/packages/gaussian/16c02/l1.exe "/mnt/tier2/users/u101443/CONTO_ERNEST/prova_opt/Gau-23929.inp" -scrdir="/mnt/tier2/users/u101443/CONTO_ERNEST/prova_opt/"
 Entering Link 1 = /project/home/p200272/packages/gaussian/16c02/l1.exe PID=     23930.
  
 Copyright (c) 1988-2021, Gaussian, Inc.  All Rights Reserved.
  
 This is part of the Gaussian(R) 16 program.  It is based on
 the Gaussian(R) 09 system (copyright 2009, Gaussian, Inc.),
 the Gaussian(R) 03 system (copyright 2003, Gaussian, Inc.),
 the Gaussian(R) 98 system (copyright 1998, Gaussian, Inc.),
 the Gaussian(R) 94 system (copyright 1995, Gaussian, Inc.),
 the Gaussian 92(TM) system (copyright 1992, Gaussian, Inc.),
 the Gaussian 90(TM) system (copyright 1990, Gaussian, Inc.),
 the Gaussian 88(TM) system (copyright 1988, Gaussian, Inc.),
 the Gaussian 86(TM) system (copyright 1986, Carnegie Mellon
 University), and the Gaussian 82(TM) system (copyright 1983,
 Carnegie Mellon University). Gaussian is a federally registered
 trademark of Gaussian, Inc.
  
 This software contains proprietary and confidential information,
 including trade secrets, belonging to Gaussian, Inc.
  
 This software is provided under written license and may be
 used, copied, transmitted, or stored only in accord with that
 written license.
  
 The following legend is applicable only to US Government
 contracts under FAR:
  
                    RESTRICTED RIGHTS LEGEND
  
 Use, reproduction and disclosure by the US Government is
 subject to restrictions as set forth in subparagraphs (a)
 and (c) of the Commercial Computer Software - Restricted
 Rights clause in FAR 52.227-19.
  
 Gaussian, Inc.
 340 Quinnipiac St., Bldg. 40, Wallingford CT 06492
  
  
 ---------------------------------------------------------------
 Warning -- This program may not be used in any manner that
 competes with the business of Gaussian, Inc. or will provide
 assistance to any competitor of Gaussian, Inc.  The licensee
 of this program is prohibited from giving any competitor of
 Gaussian, Inc. access to this program.  By using this program,
 the user acknowledges that Gaussian, Inc. is engaged in the
 business of creating and licensing software in the field of
 computational chemistry and represents and warrants to the
 licensee that it is not a competitor of Gaussian, Inc. and that
 it will not use this program in any manner prohibited above.
 ---------------------------------------------------------------
  

 Cite this work as:
 Gaussian 16, Revision C.02,
 M. J. Frisch, G. W. Trucks, H. B. Schlegel, G. E. Scuseria, 
 M. A. Robb, J. R. Cheeseman, G. Scalmani, V. Barone, 
 G. A. Petersson, H. Nakatsuji, X. Li, M. Caricato, A. V. Marenich, 
 J. Bloino, B. G. Janesko, R. Gomperts, B. Mennucci, H. P. Hratchian, 
 J. V. Ortiz, A. F. Izmaylov, J. L. Sonnenberg, D. Williams-Young, 
 F. Ding, F. Lipparini, F. Egidi, J. Goings, B. Peng, A. Petrone, 
 T. Henderson, D. Ranasinghe, V. G. Zakrzewski, J. Gao, N. Rega, 
 G. Zheng, W. Liang, M. Hada, M. Ehara, K. Toyota, R. Fukuda, 
 J. Hasegawa, M. Ishida, T. Nakajima, Y. Honda, O. Kitao, H. Nakai, 
 T. Vreven, K. Throssell, J. A. Montgomery, Jr., J. E. Peralta, 
 F. Ogliaro, M. J. Bearpark, J. J. Heyd, E. N. Brothers, K. N. Kudin, 
 V. N. Staroverov, T. A. Keith, R. Kobayashi, J. Normand, 
 K. Raghavachari, A. P. Rendell, J. C. Burant, S. S. Iyengar, 
 J. Tomasi, M. Cossi, J. M. Millam, M. Klene, C. Adamo, R. Cammi, 
 J. W. Ochterski, R. L. Martin, K. Morokuma, O. Farkas, 
 J. B. Foresman, and D. J. Fox, Gaussian, Inc., Wallingford CT, 2019.
 
 ******************************************
 Gaussian 16:  ES64L-G16RevC.02  7-Dec-2021
                14-May-2025 
 ******************************************
 -----------------------------------------------
 #p b3lyp/def2TZVP EmpiricalDispersion=GD3BJ opt
 -----------------------------------------------
 1/18=20,19=15,26=3,38=1/1,3;
 2/9=110,12=2,17=6,18=5,40=1/2;
 3/5=44,7=101,11=2,25=1,30=1,71=1,74=-5,124=41/1,2,3;
 4//1;
 5/5=2,38=5/2;
 6/7=2,8=2,9=2,10=2,28=1/1;
 7//1,2,3,16;
 1/18=20,19=15,26=3/3(2);
 2/9=110/2;
 99//99;
 2/9=110/2;
 3/5=44,7=101,11=2,25=1,30=1,71=1,74=-5,124=41/1,2,3;
 4/5=5,16=3,69=1/1;
 5/5=2,38=5/2;
 7//1,2,3,16;
 1/18=20,19=15,26=3/3(-5);
 2/9=110/2;
 6/7=2,8=2,9=2,10=2,19=2,28=1/1;
 99/9=1/99;
 Leave Link    1 at Wed May 14 19:15:04 2025, MaxMem=           0 cpu:               0.0 elap:               0.1
 (Enter /project/home/p200272/packages/gaussian/16c02/l101.exe)
 ---
 dcn
 ---
 Symbolic Z-matrix:
 Charge =  0 Multiplicity = 1
 O
 H                    1    R1
 H                    1    R1       2    A1
       Variables:
  R1                    1.                       
  A1                  104.                       
 
 ITRead=  0  0  0
 MicOpt= -1 -1 -1
 NAtoms=      3 NQM=        3 NQMF=       0 NMMI=      0 NMMIF=      0
                NMic=       0 NMicF=      0.
                    Isotopes and Nuclear Properties:
 (Nuclear quadrupole moments (NQMom) in fm**2, nuclear magnetic moments (NMagM)
  in nuclear magnetons)

  Atom         1           2           3
 IAtWgt=          16           1           1
 AtmWgt=  15.9949146   1.0078250   1.0078250
 NucSpn=           0           1           1
 AtZEff=  -0.0000000  -0.0000000  -0.0000000
 NQMom=    0.0000000   0.0000000   0.0000000
 NMagM=    0.0000000   2.7928460   2.7928460
 AtZNuc=   8.0000000   1.0000000   1.0000000
 Leave Link  101 at Wed May 14 19:15:06 2025, MaxMem=   104857600 cpu:               0.1 elap:               0.3
 (Enter /project/home/p200272/packages/gaussian/16c02/l103.exe)

 GradGradGradGradGradGradGradGradGradGradGradGradGradGradGradGradGradGrad
 Berny optimization.
 Initialization pass.
                           ----------------------------
                           !    Initial Parameters    !
                           ! (Angstroms and Degrees)  !
 --------------------------                            --------------------------
 ! Name  Definition              Value          Derivative Info.                !
 --------------------------------------------------------------------------------
 ! R1    R(1,2)                  1.0            estimate D2E/DX2                !
 ! R2    R(1,3)                  1.0            estimate D2E/DX2                !
 ! A1    A(2,1,3)              104.0            estimate D2E/DX2                !
 --------------------------------------------------------------------------------
 Trust Radius=3.00D-01 FncErr=1.00D-07 GrdErr=1.00D-06 EigMax=2.50D+02 EigMin=1.00D-04
 Number of steps in this run=     20 maximum allowed number of steps=    100.
 GradGradGradGradGradGradGradGradGradGradGradGradGradGradGradGradGradGrad

 Leave Link  103 at Wed May 14 19:15:06 2025, MaxMem=   104857600 cpu:               0.0 elap:               0.1
 (Enter /project/home/p200272/packages/gaussian/16c02/l202.exe)
                          Input orientation:                          
 ---------------------------------------------------------------------
 Center     Atomic      Atomic             Coordinates (Angstroms)
 Number     Number       Type             X           Y           Z
 ---------------------------------------------------------------------
      1          8           0        0.000000    0.000000    0.000000
      2          1           0        0.000000    0.000000    1.000000
      3          1           0        0.970296    0.000000   -0.241922
 ---------------------------------------------------------------------
                    Distance matrix (angstroms):
                    1          2          3
     1  O    0.000000
     2  H    1.000000   0.000000
     3  H    1.000000   1.576022   0.000000
 Stoichiometry    H2O
 Framework group  C2V[C2(O),SGV(H2)]
 Deg. of freedom     2
 Full point group                 C2V     NOp   4
 Largest Abelian subgroup         C2V     NOp   4
 Largest concise Abelian subgroup C2      NOp   2
                         Standard orientation:                         
 ---------------------------------------------------------------------
 Center     Atomic      Atomic             Coordinates (Angstroms)
 Number     Number       Type             X           Y           Z
 ---------------------------------------------------------------------
      1          8           0        0.000000    0.000000    0.123132
      2          1           0       -0.000000    0.788011   -0.492529
      3          1           0       -0.000000   -0.788011   -0.492529
 ---------------------------------------------------------------------
 Rotational constants (GHZ):         744.8408840         403.7734629         261.8346043
 Leave Link  202 at Wed May 14 19:15:07 2025, MaxMem=   104857600 cpu:               0.0 elap:               0.1
 (Enter /project/home/p200272/packages/gaussian/16c02/l301.exe)
 Standard basis: def2TZVP (5D, 7F)
 Ernie: Thresh=  0.10000D-02 Tol=  0.10000D-05 Strict=F.
 There are    22 symmetry adapted cartesian basis functions of A1  symmetry.
 There are     4 symmetry adapted cartesian basis functions of A2  symmetry.
 There are     9 symmetry adapted cartesian basis functions of B1  symmetry.
 There are    13 symmetry adapted cartesian basis functions of B2  symmetry.
 There are    19 symmetry adapted basis functions of A1  symmetry.
 There are     4 symmetry adapted basis functions of A2  symmetry.
 There are     8 symmetry adapted basis functions of B1  symmetry.
 There are    12 symmetry adapted basis functions of B2  symmetry.
    43 basis functions,    67 primitive gaussians,    48 cartesian basis functions
     5 alpha electrons        5 beta electrons
       nuclear repulsion energy         8.8026031345 Hartrees.
 IExCor=  402 DFT=T Ex+Corr=B3LYP ExCW=0 ScaHFX=  0.200000
 ScaDFX=  0.800000  0.720000  1.000000  0.810000 ScalE2=  1.000000  1.000000
 IRadAn=      5 IRanWt=     -1 IRanGd=            0 ICorTp=0 IEmpDi=141
 NAtoms=    3 NActive=    3 NUniq=    2 SFac= 2.25D+00 NAtFMM=   60 NAOKFM=F Big=F
 Integral buffers will be    131072 words long.
 Raffenetti 2 integral format.
 Two-electron integral symmetry is turned on.
 R6Disp:  Grimme-D3(BJ) Dispersion energy=       -0.0005740208 Hartrees.
 Nuclear repulsion after empirical dispersion term =        8.8020291138 Hartrees.
 Leave Link  301 at Wed May 14 19:15:07 2025, MaxMem=   104857600 cpu:               0.0 elap:               0.1
 (Enter /project/home/p200272/packages/gaussian/16c02/l302.exe)
 NPDir=0 NMtPBC=     1 NCelOv=     1 NCel=       1 NClECP=     1 NCelD=      1
         NCelK=      1 NCelE2=     1 NClLst=     1 CellRange=     0.0.
 One-electron integrals computed using PRISM.
 One-electron integral symmetry used in STVInt
   4 Symmetry operations used in ECPInt.
 ECPInt:  NShTT=     190 NPrTT=     556 LenC2=     191 LenP2D=     541.
 LDataN:  DoStor=T MaxTD1= 6 Len=  172
 NBasis=    43 RedAO= T EigKep=  9.97D-03  NBF=    19     4     8    12
 NBsUse=    43 1.00D-06 EigRej= -1.00D+00 NBFU=    19     4     8    12
 Precomputing XC quadrature grid using
 IXCGrd= 4 IRadAn=           5 IRanWt=          -1 IRanGd=           0 AccXCQ= 0.00D+00.
 Generated NRdTot=       0 NPtTot=           0 NUsed=           0 NTot=          32
 NSgBfM=    48    48    48    48    48 MxSgAt=     3 MxSgA2=     3.
 Leave Link  302 at Wed May 14 19:15:07 2025, MaxMem=   104857600 cpu:               0.1 elap:               0.2
 (Enter /project/home/p200272/packages/gaussian/16c02/l303.exe)
 DipDrv:  MaxL=1.
 Leave Link  303 at Wed May 14 19:15:08 2025, MaxMem=   104857600 cpu:               0.0 elap:               0.1
 (Enter /project/home/p200272/packages/gaussian/16c02/l401.exe)
 ExpMin= 1.03D-01 ExpMax= 2.70D+04 ExpMxC= 9.22D+02 IAcc=3 IRadAn=         5 AccDes= 0.00D+00
 Harris functional with IExCor=  402 and IRadAn=       5 diagonalized for initial guess.
 HarFok:  IExCor=  402 AccDes= 0.00D+00 IRadAn=         5 IDoV= 1 UseB2=F ITyADJ=14
 ICtDFT=  3500011 ScaDFX=  1.000000  1.000000  1.000000  1.000000
 FoFCou: FMM=F IPFlag=           0 FMFlag=      100000 FMFlg1=           0
         NFxFlg=           0 DoJE=T BraDBF=F KetDBF=T FulRan=T
         wScrn=  0.000000 ICntrl=       500 IOpCl=  0 I1Cent=   200000004 NGrid=           0
         NMat0=    1 NMatS0=      1 NMatT0=    0 NMatD0=    1 NMtDS0=    0 NMtDT0=    0
 Petite list used in FoFCou.
 Harris En= -76.4938140001705    
 JPrj=0 DoOrth=F DoCkMO=F.
 Initial guess orbital symmetries:
       Occupied  (A1) (A1) (B2) (A1) (B1)
       Virtual   (A1) (B2) (B2) (A1) (A1) (B1) (B2) (A1) (A1) (A2)
                 (B1) (B2) (A1) (B2) (A1) (B1) (A2) (B2) (A1) (B2)
                 (A1) (B1) (A1) (A1) (B2) (B1) (A1) (B1) (A2) (B2)
                 (B2) (A1) (B1) (A2) (A1) (A1) (B2) (A1)
 The electronic state of the initial guess is 1-A1.
 Leave Link  401 at Wed May 14 19:15:08 2025, MaxMem=   104857600 cpu:               0.1 elap:               0.2
 (Enter /project/home/p200272/packages/gaussian/16c02/l502.exe)
 Keep R1 ints in memory in symmetry-blocked form, NReq=2406549.
 FoFCou: FMM=F IPFlag=           0 FMFlag=           0 FMFlg1=           0
         NFxFlg=           0 DoJE=F BraDBF=F KetDBF=F FulRan=T
         wScrn=  0.000000 ICntrl=       600 IOpCl=  0 I1Cent=           0 NGrid=           0
         NMat0=    1 NMatS0=    946 NMatT0=    0 NMatD0=    1 NMtDS0=    0 NMtDT0=    0
 Petite list used in FoFCou.
 Closed shell SCF:
 Using DIIS extrapolation, IDIIS=  1040.
 NGot=   104857600 LenX=   104730128 LenY=   104727383
 Requested convergence on RMS density matrix=1.00D-08 within 128 cycles.
 Requested convergence on MAX density matrix=1.00D-06.
 Requested convergence on             energy=1.00D-06.
 No special actions if energy rises.
 Integral accuracy reduced to 1.0D-05 until final iterations.

 Cycle   1  Pass 0  IDiag  1:
 E= -76.3802241406486    
 DIIS: error= 6.38D-02 at cycle   1 NSaved=   1.
 NSaved= 1 IEnMin= 1 EnMin= -76.3802241406486     IErMin= 1 ErrMin= 6.38D-02
 ErrMax= 6.38D-02  0.00D+00 EMaxC= 1.00D-01 BMatC= 1.17D-01 BMatP= 1.17D-01
 IDIUse=3 WtCom= 3.62D-01 WtEn= 6.38D-01
 Coeff-Com:  0.100D+01
 Coeff-En:   0.100D+01
 Coeff:      0.100D+01
 Gap=     0.163 Goal=   None    Shift=    0.000
 GapD=    0.163 DampG=1.000 DampE=0.500 DampFc=0.5000 IDamp=-1.
 Damping current iteration by 5.00D-01
 RMSDP=1.07D-02 MaxDP=1.44D-01              OVMax= 2.23D-01

 Cycle   2  Pass 0  IDiag  1:
 E= -76.3957114226875     Delta-E=       -0.015487282039 Rises=F Damp=T
 DIIS: error= 2.59D-02 at cycle   2 NSaved=   2.
 NSaved= 2 IEnMin= 2 EnMin= -76.3957114226875     IErMin= 2 ErrMin= 2.59D-02
 ErrMax= 2.59D-02  0.00D+00 EMaxC= 1.00D-01 BMatC= 1.51D-02 BMatP= 1.17D-01
 IDIUse=3 WtCom= 7.41D-01 WtEn= 2.59D-01
 Coeff-Com:  0.254D+00 0.746D+00
 Coeff-En:   0.415D+00 0.585D+00
 Coeff:      0.296D+00 0.704D+00
 Gap=     0.303 Goal=   None    Shift=    0.000
 RMSDP=1.71D-03 MaxDP=3.25D-02 DE=-1.55D-02 OVMax= 1.38D-01

 Cycle   3  Pass 0  IDiag  1:
 E= -76.4608748312311     Delta-E=       -0.065163408544 Rises=F Damp=F
 DIIS: error= 4.50D-03 at cycle   3 NSaved=   3.
 NSaved= 3 IEnMin= 3 EnMin= -76.4608748312311     IErMin= 3 ErrMin= 4.50D-03
 ErrMax= 4.50D-03  0.00D+00 EMaxC= 1.00D-01 BMatC= 5.81D-04 BMatP= 1.51D-02
 IDIUse=3 WtCom= 9.55D-01 WtEn= 4.50D-02
 Coeff-Com:  0.566D-01-0.305D-01 0.974D+00
 Coeff-En:   0.000D+00 0.000D+00 0.100D+01
 Coeff:      0.541D-01-0.291D-01 0.975D+00
 Gap=     0.320 Goal=   None    Shift=    0.000
 RMSDP=2.39D-04 MaxDP=2.81D-03 DE=-6.52D-02 OVMax= 5.10D-03

 Cycle   4  Pass 0  IDiag  1:
 E= -76.4612306371158     Delta-E=       -0.000355805885 Rises=F Damp=F
 DIIS: error= 4.12D-04 at cycle   4 NSaved=   4.
 NSaved= 4 IEnMin= 4 EnMin= -76.4612306371158     IErMin= 4 ErrMin= 4.12D-04
 ErrMax= 4.12D-04  0.00D+00 EMaxC= 1.00D-01 BMatC= 5.11D-06 BMatP= 5.81D-04
 IDIUse=3 WtCom= 9.96D-01 WtEn= 4.12D-03
 Coeff-Com:  0.105D-01-0.239D-01 0.243D+00 0.771D+00
 Coeff-En:   0.000D+00 0.000D+00 0.000D+00 0.100D+01
 Coeff:      0.105D-01-0.238D-01 0.242D+00 0.772D+00
 Gap=     0.320 Goal=   None    Shift=    0.000
 RMSDP=1.94D-05 MaxDP=2.25D-04 DE=-3.56D-04 OVMax= 4.55D-04

 Cycle   5  Pass 0  IDiag  1:
 E= -76.4612336366551     Delta-E=       -0.000002999539 Rises=F Damp=F
 DIIS: error= 1.42D-04 at cycle   5 NSaved=   5.
 NSaved= 5 IEnMin= 5 EnMin= -76.4612336366551     IErMin= 5 ErrMin= 1.42D-04
 ErrMax= 1.42D-04  0.00D+00 EMaxC= 1.00D-01 BMatC= 4.52D-07 BMatP= 5.11D-06
 IDIUse=3 WtCom= 9.99D-01 WtEn= 1.42D-03
 Coeff-Com:  0.196D-02-0.345D-02 0.173D-01 0.562D-01 0.928D+00
 Coeff-En:   0.000D+00 0.000D+00 0.000D+00 0.000D+00 0.100D+01
 Coeff:      0.195D-02-0.345D-02 0.173D-01 0.561D-01 0.928D+00
 Gap=     0.320 Goal=   None    Shift=    0.000
 RMSDP=8.81D-06 MaxDP=1.20D-04 DE=-3.00D-06 OVMax= 1.68D-04

 Initial convergence to 1.0D-05 achieved.  Increase integral accuracy.
 Cycle   6  Pass 1  IDiag  1:
 E= -76.4612338649429     Delta-E=       -0.000000228288 Rises=F Damp=F
 DIIS: error= 2.87D-06 at cycle   1 NSaved=   1.
 NSaved= 1 IEnMin= 1 EnMin= -76.4612338649429     IErMin= 1 ErrMin= 2.87D-06
 ErrMax= 2.87D-06  0.00D+00 EMaxC= 1.00D-01 BMatC= 1.87D-10 BMatP= 1.87D-10
 IDIUse=1 WtCom= 1.00D+00 WtEn= 0.00D+00
 Coeff-Com:  0.100D+01
 Coeff:      0.100D+01
 Gap=     0.320 Goal=   None    Shift=    0.000
 RMSDP=8.81D-06 MaxDP=1.20D-04 DE=-2.28D-07 OVMax= 7.44D-06

 Cycle   7  Pass 1  IDiag  1:
 E= -76.4612338649402     Delta-E=        0.000000000003 Rises=F Damp=F
 DIIS: error= 3.20D-06 at cycle   2 NSaved=   2.
 NSaved= 2 IEnMin= 1 EnMin= -76.4612338649429     IErMin= 1 ErrMin= 2.87D-06
 ErrMax= 3.20D-06  0.00D+00 EMaxC= 1.00D-01 BMatC= 2.51D-10 BMatP= 1.87D-10
 IDIUse=1 WtCom= 1.00D+00 WtEn= 0.00D+00
 Coeff-Com:  0.542D+00 0.458D+00
 Coeff:      0.542D+00 0.458D+00
 Gap=     0.320 Goal=   None    Shift=    0.000
 RMSDP=2.00D-07 MaxDP=2.64D-06 DE= 2.70D-12 OVMax= 4.31D-06

 Cycle   8  Pass 1  IDiag  1:
 E= -76.4612338650997     Delta-E=       -0.000000000159 Rises=F Damp=F
 DIIS: error= 6.37D-07 at cycle   3 NSaved=   3.
 NSaved= 3 IEnMin= 3 EnMin= -76.4612338650997     IErMin= 3 ErrMin= 6.37D-07
 ErrMax= 6.37D-07  0.00D+00 EMaxC= 1.00D-01 BMatC= 1.27D-11 BMatP= 1.87D-10
 IDIUse=1 WtCom= 1.00D+00 WtEn= 0.00D+00
 Coeff-Com:  0.116D+00 0.203D+00 0.680D+00
 Coeff:      0.116D+00 0.203D+00 0.680D+00
 Gap=     0.320 Goal=   None    Shift=    0.000
 RMSDP=3.81D-08 MaxDP=4.34D-07 DE=-1.59D-10 OVMax= 8.96D-07

 Cycle   9  Pass 1  IDiag  1:
 E= -76.4612338651079     Delta-E=       -0.000000000008 Rises=F Damp=F
 DIIS: error= 7.88D-08 at cycle   4 NSaved=   4.
 NSaved= 4 IEnMin= 4 EnMin= -76.4612338651079     IErMin= 4 ErrMin= 7.88D-08
 ErrMax= 7.88D-08  0.00D+00 EMaxC= 1.00D-01 BMatC= 1.35D-13 BMatP= 1.27D-11
 IDIUse=1 WtCom= 1.00D+00 WtEn= 0.00D+00
 Coeff-Com: -0.102D-01 0.218D-02 0.102D+00 0.906D+00
 Coeff:     -0.102D-01 0.218D-02 0.102D+00 0.906D+00
 Gap=     0.320 Goal=   None    Shift=    0.000
 RMSDP=7.70D-09 MaxDP=8.93D-08 DE=-8.21D-12 OVMax= 1.94D-07

 SCF Done:  E(RB3LYP) =  -76.4612338651     A.U. after    9 cycles
            NFock=  9  Conv=0.77D-08     -V/T= 2.0055
 KE= 7.604282073431D+01 PE=-1.984513447307D+02 EE= 3.714526101747D+01
 Leave Link  502 at Wed May 14 19:15:09 2025, MaxMem=   104857600 cpu:               0.4 elap:               0.6
 (Enter /project/home/p200272/packages/gaussian/16c02/l601.exe)
 Copying SCF densities to generalized density rwf, IOpCl= 0 IROHF=0.

 **********************************************************************

            Population analysis using the SCF Density.

 **********************************************************************

 Orbital symmetries:
       Occupied  (A1) (A1) (B2) (A1) (B1)
       Virtual   (A1) (B2) (B2) (A1) (B1) (A1) (B2) (A1) (A1) (A2)
                 (B1) (B2) (A1) (B2) (A1) (B1) (A2) (B2) (A1) (B2)
                 (A1) (B1) (A1) (A1) (B2) (B1) (A1) (B1) (A2) (B2)
                 (B2) (A1) (B1) (A2) (A1) (A1) (B2) (A1)
 The electronic state is 1-A1.
 Alpha  occ. eigenvalues --  -19.13374  -0.99940  -0.51932  -0.38986  -0.31375
 Alpha virt. eigenvalues --    0.00661   0.08102   0.34355   0.39518   0.42501
 Alpha virt. eigenvalues --    0.42673   0.55764   0.59245   1.15311   1.17990
 Alpha virt. eigenvalues --    1.28496   1.54447   1.63537   1.71543   2.00828
 Alpha virt. eigenvalues --    2.02891   2.06536   2.29244   2.34540   2.49772
 Alpha virt. eigenvalues --    2.52506   2.59316   2.74487   3.59547   3.84274
 Alpha virt. eigenvalues --    5.09991   5.19019   5.34250   5.36732   5.41200
 Alpha virt. eigenvalues --    5.87852   6.10312   6.29447   6.35046   6.40738
 Alpha virt. eigenvalues --    6.79387   6.97220  43.22943
          Condensed to atoms (all electrons):
               1          2          3
     1  O    8.064029   0.287489   0.287489
     2  H    0.287489   0.416383  -0.023376
     3  H    0.287489  -0.023376   0.416383
 Mulliken charges:
               1
     1  O   -0.639007
     2  H    0.319503
     3  H    0.319503
 Sum of Mulliken charges =  -0.00000
 Mulliken charges with hydrogens summed into heavy atoms:
               1
     1  O   -0.000000
 Electronic spatial extent (au):  <R**2>=             20.2193
 Charge=             -0.0000 electrons
 Dipole moment (field-independent basis, Debye):
    X=             -0.0000    Y=             -0.0000    Z=             -2.0988  Tot=              2.0988
 Quadrupole moment (field-independent basis, Debye-Ang):
   XX=             -7.6663   YY=             -4.3362   ZZ=             -6.3150
   XY=              0.0000   XZ=              0.0000   YZ=              0.0000
 Traceless Quadrupole moment (field-independent basis, Debye-Ang):
   XX=             -1.5604   YY=              1.7696   ZZ=             -0.2092
   XY=              0.0000   XZ=              0.0000   YZ=              0.0000
 Octapole moment (field-independent basis, Debye-Ang**2):
  XXX=              0.0000  YYY=             -0.0000  ZZZ=             -1.3157  XYY=             -0.0000
  XXY=             -0.0000  XXZ=             -0.3424  XZZ=             -0.0000  YZZ=             -0.0000
  YYZ=             -1.4140  XYZ=             -0.0000
 Hexadecapole moment (field-independent basis, Debye-Ang**3):
 XXXX=             -6.6766 YYYY=             -6.7236 ZZZZ=             -7.5731 XXXY=             -0.0000
 XXXZ=             -0.0000 YYYX=             -0.0000 YYYZ=              0.0000 ZZZX=             -0.0000
 ZZZY=             -0.0000 XXYY=             -2.5513 XXZZ=             -2.4371 YYZZ=             -1.9980
 XXYZ=             -0.0000 YYXZ=              0.0000 ZZXY=              0.0000
 N-N= 8.802029113788D+00 E-N=-1.984513429049D+02  KE= 7.604282073431D+01
 Symmetry A1   KE= 6.790149503460D+01
 Symmetry A2   KE= 1.220003916262D-33
 Symmetry B1   KE= 4.569275472970D+00
 Symmetry B2   KE= 3.572050226741D+00
 No NMR shielding tensors so no spin-rotation constants.
 Leave Link  601 at Wed May 14 19:15:11 2025, MaxMem=   104857600 cpu:               0.1 elap:               0.7
 (Enter /project/home/p200272/packages/gaussian/16c02/l701.exe)
 ... and contract with generalized density number  0.
 Compute integral first derivatives.
 R6Disp: Adding Grimme-D3(BJ) dispersion energy 1st derivatives to the gradient.
   4 Symmetry operations used in ECPInt.
 ECPInt:  NShTT=     190 NPrTT=     556 LenC2=     191 LenP2D=     541.
 LDataN:  DoStor=T MaxTD1= 7 Len=  274
 Leave Link  701 at Wed May 14 19:15:11 2025, MaxMem=   104857600 cpu:               0.1 elap:               0.2
 (Enter /project/home/p200272/packages/gaussian/16c02/l702.exe)
 L702 exits ... SP integral derivatives will be done elsewhere.
 Leave Link  702 at Wed May 14 19:15:12 2025, MaxMem=   104857600 cpu:               0.0 elap:               0.1
 (Enter /project/home/p200272/packages/gaussian/16c02/l703.exe)
 Integral derivatives from FoFJK, PRISM(SPDF).
 Compute integral first derivatives, UseDBF=F ICtDFT=           0.
 Calling FoFJK, ICntrl=      2127 FMM=F ISym2X=1 I1Cent= 0 IOpClX= 0 NMat=1 NMatS=1 NMatT=0.
 FoFJK:  IHMeth= 1 ICntrl=    2127 DoSepK=F KAlg= 0 I1Cent=           0 FoldK=F
 IRaf=         0 NMat=       1 IRICut=       1 DoRegI=T DoRafI=F ISym2E= 1 IDoP0=0 IntGTp=1.
 FoFCou: FMM=F IPFlag=           0 FMFlag=      100000 FMFlg1=         800
         NFxFlg=           0 DoJE=F BraDBF=F KetDBF=F FulRan=T
         wScrn=  0.000000 ICntrl=      2127 IOpCl=  0 I1Cent=           0 NGrid=           0
         NMat0=    1 NMatS0=      1 NMatT0=    0 NMatD0=    1 NMtDS0=    0 NMtDT0=    0
 Petite list used in FoFCou.
 Leave Link  703 at Wed May 14 19:15:12 2025, MaxMem=   104857600 cpu:               0.3 elap:               0.4
 (Enter /project/home/p200272/packages/gaussian/16c02/l716.exe)
 Dipole        =-5.64690071D-17-2.22044605D-16-8.25712566D-01
 ***** Axes restored to original set *****
 -------------------------------------------------------------------
 Center     Atomic                   Forces (Hartrees/Bohr)
 Number     Number              X              Y              Z
 -------------------------------------------------------------------
      1        8           0.030402851    0.000000000    0.023753311
      2        1           0.000430109   -0.000000000   -0.031884107
      3        1          -0.030832960   -0.000000000    0.008130796
 -------------------------------------------------------------------
 Cartesian Forces:  Max     0.031884107 RMS     0.019782472
 Leave Link  716 at Wed May 14 19:15:13 2025, MaxMem=   104857600 cpu:               0.0 elap:               0.1
 (Enter /project/home/p200272/packages/gaussian/16c02/l103.exe)

 GradGradGradGradGradGradGradGradGradGradGradGradGradGradGradGradGradGrad
 Berny optimization.
 FormGI is forming the generalized inverse of G from B-inverse, IUseBI=4.
 Internal  Forces:  Max     0.031884107 RMS     0.026037493
 Search for a local minimum.
 Step number   1 out of a maximum of   20
 All quantities printed in internal units (Hartrees-Bohrs-Radians)
 RMS Force = .26037D-01 SwitMx=.10000D-02 MixMth= 1
 Mixed Optimization -- RFO/linear search
 Second derivative matrix not updated -- first step.
 The second derivative matrix:
                          R1        R2        A1
           R1           0.47688
           R2           0.00000   0.47688
           A1           0.00000   0.00000   0.16000
 ITU=  0
     Eigenvalues ---    0.16000   0.47688   0.47688
 RFO step:  Lambda=-4.23004124D-03 EMin= 1.60000000D-01
 Linear search not attempted -- first point.
 Iteration  1 RMS(Cart)=  0.04827204 RMS(Int)=  0.00010395
 Iteration  2 RMS(Cart)=  0.00010029 RMS(Int)=  0.00000001
 Iteration  3 RMS(Cart)=  0.00000001 RMS(Int)=  0.00000000
 ITry= 1 IFail=0 DXMaxC= 5.10D-02 DCOld= 1.00D+10 DXMaxT= 3.00D-01 DXLimC= 3.00D+00 Rises=F
 ClnCor:  largest displacement from symmetrization is 3.20D-16 for atom     1.
 Variable       Old X    -DE/DX   Delta X   Delta X   Delta X     New X
                                 (Linear)    (Quad)   (Total)
    R1        1.88973  -0.03188   0.00000  -0.06627  -0.06627   1.82345
    R2        1.88973  -0.03188   0.00000  -0.06627  -0.06627   1.82345
    A1        1.81514  -0.00081   0.00000  -0.00495  -0.00495   1.81019
         Item               Value     Threshold  Converged?
 Maximum Force            0.031884     0.000450     NO 
 RMS     Force            0.026037     0.000300     NO 
 Maximum Displacement     0.050989     0.001800     NO 
 RMS     Displacement     0.048222     0.001200     NO 
 Predicted change in Energy=-2.133649D-03
 Lowest energy point so far.  Saving SCF results.
 GradGradGradGradGradGradGradGradGradGradGradGradGradGradGradGradGradGrad

 Leave Link  103 at Wed May 14 19:15:13 2025, MaxMem=   104857600 cpu:               0.0 elap:               0.3
 (Enter /project/home/p200272/packages/gaussian/16c02/l202.exe)
                          Input orientation:                          
 ---------------------------------------------------------------------
 Center     Atomic      Atomic             Coordinates (Angstroms)
 Number     Number       Type             X           Y           Z
 ---------------------------------------------------------------------
      1          8           0        0.010355   -0.000000    0.008090
      2          1           0        0.012743   -0.000000    0.973018
      3          1           0        0.947198    0.000000   -0.223030
 ---------------------------------------------------------------------
                    Distance matrix (angstroms):
                    1          2          3
     1  O    0.000000
     2  H    0.964931   0.000000
     3  H    0.964931   1.517807   0.000000
 Stoichiometry    H2O
 Framework group  C2V[C2(O),SGV(H2)]
 Deg. of freedom     2
 Full point group                 C2V     NOp   4
 RotChk:  IX=0 Diff= 9.62D-16
 Largest Abelian subgroup         C2V     NOp   4
 Largest concise Abelian subgroup C2      NOp   2
                         Standard orientation:                         
 ---------------------------------------------------------------------
 Center     Atomic      Atomic             Coordinates (Angstroms)
 Number     Number       Type             X           Y           Z
 ---------------------------------------------------------------------
      1          8           0       -0.000000    0.000000    0.119190
      2          1           0       -0.000000    0.758903   -0.476760
      3          1           0       -0.000000   -0.758903   -0.476760
 ---------------------------------------------------------------------
 Rotational constants (GHZ):         794.9270436         435.3405686         281.2916375
 Leave Link  202 at Wed May 14 19:15:13 2025, MaxMem=   104857600 cpu:               0.0 elap:               0.0
 (Enter /project/home/p200272/packages/gaussian/16c02/l301.exe)
 Standard basis: def2TZVP (5D, 7F)
 Ernie: Thresh=  0.10000D-02 Tol=  0.10000D-05 Strict=F.
 There are    22 symmetry adapted cartesian basis functions of A1  symmetry.
 There are     4 symmetry adapted cartesian basis functions of A2  symmetry.
 There are     9 symmetry adapted cartesian basis functions of B1  symmetry.
 There are    13 symmetry adapted cartesian basis functions of B2  symmetry.
 There are    19 symmetry adapted basis functions of A1  symmetry.
 There are     4 symmetry adapted basis functions of A2  symmetry.
 There are     8 symmetry adapted basis functions of B1  symmetry.
 There are    12 symmetry adapted basis functions of B2  symmetry.
    43 basis functions,    67 primitive gaussians,    48 cartesian basis functions
     5 alpha electrons        5 beta electrons
       nuclear repulsion energy         9.1231994470 Hartrees.
 IExCor=  402 DFT=T Ex+Corr=B3LYP ExCW=0 ScaHFX=  0.200000
 ScaDFX=  0.800000  0.720000  1.000000  0.810000 ScalE2=  1.000000  1.000000
 IRadAn=      5 IRanWt=     -1 IRanGd=            0 ICorTp=0 IEmpDi=141
 NAtoms=    3 NActive=    3 NUniq=    2 SFac= 2.25D+00 NAtFMM=   60 NAOKFM=F Big=F
 Integral buffers will be    131072 words long.
 Raffenetti 2 integral format.
 Two-electron integral symmetry is turned on.
 R6Disp:  Grimme-D3(BJ) Dispersion energy=       -0.0005739138 Hartrees.
 Nuclear repulsion after empirical dispersion term =        9.1226255332 Hartrees.
 Leave Link  301 at Wed May 14 19:15:13 2025, MaxMem=   104857600 cpu:               0.0 elap:               0.1
 (Enter /project/home/p200272/packages/gaussian/16c02/l302.exe)
 NPDir=0 NMtPBC=     1 NCelOv=     1 NCel=       1 NClECP=     1 NCelD=      1
         NCelK=      1 NCelE2=     1 NClLst=     1 CellRange=     0.0.
 One-electron integrals computed using PRISM.
 One-electron integral symmetry used in STVInt
   4 Symmetry operations used in ECPInt.
 ECPInt:  NShTT=     190 NPrTT=     556 LenC2=     191 LenP2D=     543.
 LDataN:  DoStor=T MaxTD1= 6 Len=  172
 NBasis=    43 RedAO= T EigKep=  8.57D-03  NBF=    19     4     8    12
 NBsUse=    43 1.00D-06 EigRej= -1.00D+00 NBFU=    19     4     8    12
 Precomputing XC quadrature grid using
 IXCGrd= 4 IRadAn=           5 IRanWt=          -1 IRanGd=           0 AccXCQ= 0.00D+00.
 Generated NRdTot=       0 NPtTot=           0 NUsed=           0 NTot=          32
 NSgBfM=    48    48    48    48    48 MxSgAt=     3 MxSgA2=     3.
 Leave Link  302 at Wed May 14 19:15:14 2025, MaxMem=   104857600 cpu:               0.1 elap:               0.1
 (Enter /project/home/p200272/packages/gaussian/16c02/l303.exe)
 DipDrv:  MaxL=1.
 Leave Link  303 at Wed May 14 19:15:14 2025, MaxMem=   104857600 cpu:               0.0 elap:               0.0
 (Enter /project/home/p200272/packages/gaussian/16c02/l401.exe)
 Initial guess from the checkpoint file:  "/mnt/tier2/users/u101443/CONTO_ERNEST/prova_opt/Gau-23930.chk"
 B after Tr=     0.000000    0.000000   -0.000000
         Rot=    1.000000   -0.000000    0.000000   -0.000000 Ang=   0.00 deg.
 Guess basis will be translated and rotated to current coordinates.
 JPrj=2 DoOrth=T DoCkMO=T.
 Initial guess orbital symmetries:
       Occupied  (A1) (A1) (B2) (A1) (B1)
       Virtual   (A1) (B2) (B2) (A1) (B1) (A1) (B2) (A1) (A1) (A2)
                 (B1) (B2) (A1) (B2) (A1) (B1) (A2) (B2) (A1) (B2)
                 (A1) (B1) (A1) (A1) (B2) (B1) (A1) (B1) (A2) (B2)
                 (B2) (A1) (B1) (A2) (A1) (A1) (B2) (A1)
 The electronic state of the initial guess is 1-A1.
 Generating alternative initial guess.
 ExpMin= 1.03D-01 ExpMax= 2.70D+04 ExpMxC= 9.22D+02 IAcc=3 IRadAn=         5 AccDes= 0.00D+00
 Harris functional with IExCor=  402 and IRadAn=       5 diagonalized for initial guess.
 HarFok:  IExCor=  402 AccDes= 0.00D+00 IRadAn=         5 IDoV= 1 UseB2=F ITyADJ=14
 ICtDFT=  3500011 ScaDFX=  1.000000  1.000000  1.000000  1.000000
 FoFCou: FMM=F IPFlag=           0 FMFlag=      100000 FMFlg1=           0
         NFxFlg=           0 DoJE=T BraDBF=F KetDBF=T FulRan=T
         wScrn=  0.000000 ICntrl=       500 IOpCl=  0 I1Cent=   200000004 NGrid=           0
         NMat0=    1 NMatS0=      1 NMatT0=    0 NMatD0=    1 NMtDS0=    0 NMtDT0=    0
 Petite list used in FoFCou.
 Harris En= -76.4985075152231    
 Leave Link  401 at Wed May 14 19:15:14 2025, MaxMem=   104857600 cpu:               0.2 elap:               0.2
 (Enter /project/home/p200272/packages/gaussian/16c02/l502.exe)
 Keep R1 ints in memory in symmetry-blocked form, NReq=2406549.
 FoFCou: FMM=F IPFlag=           0 FMFlag=           0 FMFlg1=           0
         NFxFlg=           0 DoJE=F BraDBF=F KetDBF=F FulRan=T
         wScrn=  0.000000 ICntrl=       600 IOpCl=  0 I1Cent=           0 NGrid=           0
         NMat0=    1 NMatS0=    946 NMatT0=    0 NMatD0=    1 NMtDS0=    0 NMtDT0=    0
 Petite list used in FoFCou.
 Closed shell SCF:
 Using DIIS extrapolation, IDIIS=  1040.
 NGot=   104857600 LenX=   104730128 LenY=   104727383
 Requested convergence on RMS density matrix=1.00D-08 within 128 cycles.
 Requested convergence on MAX density matrix=1.00D-06.
 Requested convergence on             energy=1.00D-06.
 No special actions if energy rises.
 Integral accuracy reduced to 1.0D-05 until final iterations.

 Cycle   1  Pass 0  IDiag  1:
 E= -76.4628680538622    
 DIIS: error= 4.70D-03 at cycle   1 NSaved=   1.
 NSaved= 1 IEnMin= 1 EnMin= -76.4628680538622     IErMin= 1 ErrMin= 4.70D-03
 ErrMax= 4.70D-03  0.00D+00 EMaxC= 1.00D-01 BMatC= 8.63D-04 BMatP= 8.63D-04
 IDIUse=3 WtCom= 9.53D-01 WtEn= 4.70D-02
 Coeff-Com:  0.100D+01
 Coeff-En:   0.100D+01
 Coeff:      0.100D+01
 Gap=     0.363 Goal=   None    Shift=    0.000
 GapD=    0.363 DampG=1.000 DampE=1.000 DampFc=1.0000 IDamp=-1.
 RMSDP=5.25D-04 MaxDP=5.38D-03              OVMax= 1.47D-02

 Cycle   2  Pass 0  IDiag  1:
 E= -76.4631979405384     Delta-E=       -0.000329886676 Rises=F Damp=F
 DIIS: error= 4.88D-03 at cycle   2 NSaved=   2.
 NSaved= 2 IEnMin= 2 EnMin= -76.4631979405384     IErMin= 1 ErrMin= 4.70D-03
 ErrMax= 4.88D-03  0.00D+00 EMaxC= 1.00D-01 BMatC= 4.82D-04 BMatP= 8.63D-04
 IDIUse=3 WtCom= 9.51D-01 WtEn= 4.88D-02
 Coeff-Com:  0.401D+00 0.599D+00
 Coeff-En:   0.180D+00 0.820D+00
 Coeff:      0.390D+00 0.610D+00
 Gap=     0.327 Goal=   None    Shift=    0.000
 RMSDP=3.52D-04 MaxDP=5.02D-03 DE=-3.30D-04 OVMax= 7.27D-03

 Cycle   3  Pass 0  IDiag  1:
 E= -76.4634123458055     Delta-E=       -0.000214405267 Rises=F Damp=F
 DIIS: error= 2.38D-03 at cycle   3 NSaved=   3.
 NSaved= 3 IEnMin= 3 EnMin= -76.4634123458055     IErMin= 3 ErrMin= 2.38D-03
 ErrMax= 2.38D-03  0.00D+00 EMaxC= 1.00D-01 BMatC= 1.53D-04 BMatP= 4.82D-04
 IDIUse=3 WtCom= 9.76D-01 WtEn= 2.38D-02
 Coeff-Com:  0.210D-01 0.358D+00 0.621D+00
 Coeff-En:   0.000D+00 0.264D+00 0.736D+00
 Coeff:      0.205D-01 0.356D+00 0.624D+00
 Gap=     0.330 Goal=   None    Shift=    0.000
 RMSDP=1.35D-04 MaxDP=1.55D-03 DE=-2.14D-04 OVMax= 3.10D-03

 Cycle   4  Pass 0  IDiag  1:
 E= -76.4635104906552     Delta-E=       -0.000098144850 Rises=F Damp=F
 DIIS: error= 1.96D-04 at cycle   4 NSaved=   4.
 NSaved= 4 IEnMin= 4 EnMin= -76.4635104906552     IErMin= 4 ErrMin= 1.96D-04
 ErrMax= 1.96D-04  0.00D+00 EMaxC= 1.00D-01 BMatC= 7.14D-07 BMatP= 1.53D-04
 IDIUse=3 WtCom= 9.98D-01 WtEn= 1.96D-03
 Coeff-Com: -0.506D-02 0.668D-01 0.152D+00 0.786D+00
 Coeff-En:   0.000D+00 0.000D+00 0.000D+00 0.100D+01
 Coeff:     -0.505D-02 0.667D-01 0.152D+00 0.786D+00
 Gap=     0.330 Goal=   None    Shift=    0.000
 RMSDP=9.38D-06 MaxDP=7.36D-05 DE=-9.81D-05 OVMax= 2.38D-04

 Initial convergence to 1.0D-05 achieved.  Increase integral accuracy.
 Cycle   5  Pass 1  IDiag  1:
 E= -76.4635112894002     Delta-E=       -0.000000798745 Rises=F Damp=F
 DIIS: error= 1.44D-05 at cycle   1 NSaved=   1.
 NSaved= 1 IEnMin= 1 EnMin= -76.4635112894002     IErMin= 1 ErrMin= 1.44D-05
 ErrMax= 1.44D-05  0.00D+00 EMaxC= 1.00D-01 BMatC= 4.93D-09 BMatP= 4.93D-09
 IDIUse=1 WtCom= 1.00D+00 WtEn= 0.00D+00
 Coeff-Com:  0.100D+01
 Coeff:      0.100D+01
 Gap=     0.330 Goal=   None    Shift=    0.000
 RMSDP=9.38D-06 MaxDP=7.36D-05 DE=-7.99D-07 OVMax= 5.06D-05

 Cycle   6  Pass 1  IDiag  1:
 E= -76.4635112904592     Delta-E=       -0.000000001059 Rises=F Damp=F
 DIIS: error= 1.29D-05 at cycle   2 NSaved=   2.
 NSaved= 2 IEnMin= 2 EnMin= -76.4635112904592     IErMin= 2 ErrMin= 1.29D-05
 ErrMax= 1.29D-05  0.00D+00 EMaxC= 1.00D-01 BMatC= 4.64D-09 BMatP= 4.93D-09
 IDIUse=1 WtCom= 1.00D+00 WtEn= 0.00D+00
 Coeff-Com:  0.491D+00 0.509D+00
 Coeff:      0.491D+00 0.509D+00
 Gap=     0.330 Goal=   None    Shift=    0.000
 RMSDP=9.07D-07 MaxDP=1.15D-05 DE=-1.06D-09 OVMax= 1.97D-05

 Cycle   7  Pass 1  IDiag  1:
 E= -76.4635112932477     Delta-E=       -0.000000002789 Rises=F Damp=F
 DIIS: error= 4.14D-06 at cycle   3 NSaved=   3.
 NSaved= 3 IEnMin= 3 EnMin= -76.4635112932477     IErMin= 3 ErrMin= 4.14D-06
 ErrMax= 4.14D-06  0.00D+00 EMaxC= 1.00D-01 BMatC= 4.61D-10 BMatP= 4.64D-09
 IDIUse=1 WtCom= 1.00D+00 WtEn= 0.00D+00
 Coeff-Com:  0.140D+00 0.264D+00 0.596D+00
 Coeff:      0.140D+00 0.264D+00 0.596D+00
 Gap=     0.330 Goal=   None    Shift=    0.000
 RMSDP=2.35D-07 MaxDP=2.86D-06 DE=-2.79D-09 OVMax= 5.74D-06

 Cycle   8  Pass 1  IDiag  1:
 E= -76.4635112935446     Delta-E=       -0.000000000297 Rises=F Damp=F
 DIIS: error= 4.11D-07 at cycle   4 NSaved=   4.
 NSaved= 4 IEnMin= 4 EnMin= -76.4635112935446     IErMin= 4 ErrMin= 4.11D-07
 ErrMax= 4.11D-07  0.00D+00 EMaxC= 1.00D-01 BMatC= 2.58D-12 BMatP= 4.61D-10
 IDIUse=1 WtCom= 1.00D+00 WtEn= 0.00D+00
 Coeff-Com: -0.233D-01-0.240D-01 0.235D-01 0.102D+01
 Coeff:     -0.233D-01-0.240D-01 0.235D-01 0.102D+01
 Gap=     0.330 Goal=   None    Shift=    0.000
 RMSDP=3.47D-08 MaxDP=4.97D-07 DE=-2.97D-10 OVMax= 7.87D-07

 Cycle   9  Pass 1  IDiag  1:
 E= -76.4635112935470     Delta-E=       -0.000000000002 Rises=F Damp=F
 DIIS: error= 2.09D-08 at cycle   5 NSaved=   5.
 NSaved= 5 IEnMin= 5 EnMin= -76.4635112935470     IErMin= 5 ErrMin= 2.09D-08
 ErrMax= 2.09D-08  0.00D+00 EMaxC= 1.00D-01 BMatC= 1.16D-14 BMatP= 2.58D-12
 IDIUse=1 WtCom= 1.00D+00 WtEn= 0.00D+00
 Coeff-Com: -0.209D-02-0.224D-02-0.450D-02 0.594D-01 0.949D+00
 Coeff:     -0.209D-02-0.224D-02-0.450D-02 0.594D-01 0.949D+00
 Gap=     0.330 Goal=   None    Shift=    0.000
 RMSDP=1.87D-09 MaxDP=2.40D-08 DE=-2.44D-12 OVMax= 5.60D-08

 SCF Done:  E(RB3LYP) =  -76.4635112935     A.U. after    9 cycles
            NFock=  9  Conv=0.19D-08     -V/T= 2.0040
 KE= 7.616035662768D+01 PE=-1.991401512172D+02 EE= 3.739365776272D+01
 Leave Link  502 at Wed May 14 19:15:14 2025, MaxMem=   104857600 cpu:               0.4 elap:               0.5
 (Enter /project/home/p200272/packages/gaussian/16c02/l701.exe)
 ... and contract with generalized density number  0.
 Compute integral first derivatives.
 R6Disp: Adding Grimme-D3(BJ) dispersion energy 1st derivatives to the gradient.
   4 Symmetry operations used in ECPInt.
 ECPInt:  NShTT=     190 NPrTT=     556 LenC2=     191 LenP2D=     543.
 LDataN:  DoStor=T MaxTD1= 7 Len=  274
 Leave Link  701 at Wed May 14 19:15:15 2025, MaxMem=   104857600 cpu:               0.1 elap:               0.1
 (Enter /project/home/p200272/packages/gaussian/16c02/l702.exe)
 L702 exits ... SP integral derivatives will be done elsewhere.
 Leave Link  702 at Wed May 14 19:15:15 2025, MaxMem=   104857600 cpu:               0.0 elap:               0.0
 (Enter /project/home/p200272/packages/gaussian/16c02/l703.exe)
 Integral derivatives from FoFJK, PRISM(SPDF).
 Compute integral first derivatives, UseDBF=F ICtDFT=           0.
 Calling FoFJK, ICntrl=      2127 FMM=F ISym2X=1 I1Cent= 0 IOpClX= 0 NMat=1 NMatS=1 NMatT=0.
 FoFJK:  IHMeth= 1 ICntrl=    2127 DoSepK=F KAlg= 0 I1Cent=           0 FoldK=F
 IRaf=         0 NMat=       1 IRICut=       1 DoRegI=T DoRafI=F ISym2E= 1 IDoP0=0 IntGTp=1.
 FoFCou: FMM=F IPFlag=           0 FMFlag=      100000 FMFlg1=         800
         NFxFlg=           0 DoJE=F BraDBF=F KetDBF=F FulRan=T
         wScrn=  0.000000 ICntrl=      2127 IOpCl=  0 I1Cent=           0 NGrid=           0
         NMat0=    1 NMatS0=      1 NMatT0=    0 NMatD0=    1 NMtDS0=    0 NMtDT0=    0
 Petite list used in FoFCou.
 Leave Link  703 at Wed May 14 19:15:15 2025, MaxMem=   104857600 cpu:               0.3 elap:               0.3
 (Enter /project/home/p200272/packages/gaussian/16c02/l716.exe)
 Dipole        =-5.33378331D-17 0.00000000D+00-8.21532589D-01
 ***** Axes restored to original set *****
 -------------------------------------------------------------------
 Center     Atomic                   Forces (Hartrees/Bohr)
 Number     Number              X              Y              Z
 -------------------------------------------------------------------
      1        8           0.003999883    0.000000000    0.003125051
      2        1          -0.002174224   -0.000000000   -0.001339454
      3        1          -0.001825659   -0.000000000   -0.001785597
 -------------------------------------------------------------------
 Cartesian Forces:  Max     0.003999883 RMS     0.002076530
 Leave Link  716 at Wed May 14 19:15:15 2025, MaxMem=   104857600 cpu:               0.0 elap:               0.0
 (Enter /project/home/p200272/packages/gaussian/16c02/l103.exe)

 GradGradGradGradGradGradGradGradGradGradGradGradGradGradGradGradGradGrad
 Berny optimization.
 Using GEDIIS/GDIIS optimizer.
 FormGI is forming the generalized inverse of G from B-inverse, IUseBI=4.
 Internal  Forces:  Max     0.003958542 RMS     0.002535560
 Search for a local minimum.
 Step number   2 out of a maximum of   20
 All quantities printed in internal units (Hartrees-Bohrs-Radians)
 RMS Force = .25356D-02 SwitMx=.10000D-02 MixMth= 1
 Mixed Optimization -- RFO/linear search
 Update second derivatives using D2CorX and points    1    2
 DE= -2.28D-03 DEPred=-2.13D-03 R= 1.07D+00
 TightC=F SS=  1.41D+00  RLast= 9.39D-02 DXNew= 5.0454D-01 2.8156D-01
 Trust test= 1.07D+00 RLast= 9.39D-02 DXMaxT set to 3.00D-01
 The second derivative matrix:
                          R1        R2        A1
           R1           0.46774
           R2          -0.00914   0.46774
           A1           0.02982   0.02982   0.16544
 ITU=  1  0
 Use linear search instead of GDIIS.
     Eigenvalues ---    0.15950   0.46454   0.47688
 RFO step:  Lambda=-1.06808820D-04 EMin= 1.59495634D-01
 Quartic linear search produced a step of  0.03450.
 Iteration  1 RMS(Cart)=  0.01334064 RMS(Int)=  0.00012595
 Iteration  2 RMS(Cart)=  0.00012240 RMS(Int)=  0.00000000
 Iteration  3 RMS(Cart)=  0.00000000 RMS(Int)=  0.00000000
 ITry= 1 IFail=0 DXMaxC= 1.29D-02 DCOld= 1.00D+10 DXMaxT= 3.00D-01 DXLimC= 3.00D+00 Rises=F
 ClnCor:  largest displacement from symmetrization is 1.86D-15 for atom     3.
 Variable       Old X    -DE/DX   Delta X   Delta X   Delta X     New X
                                 (Linear)    (Quad)   (Total)
    R1        1.82345  -0.00134  -0.00229  -0.00201  -0.00429   1.81916
    R2        1.82345  -0.00134  -0.00229  -0.00201  -0.00429   1.81916
    A1        1.81019   0.00396  -0.00017   0.02569   0.02552   1.83571
         Item               Value     Threshold  Converged?
 Maximum Force            0.003959     0.000450     NO 
 RMS     Force            0.002536     0.000300     NO 
 Maximum Displacement     0.012854     0.001800     NO 
 RMS     Displacement     0.013280     0.001200     NO 
 Predicted change in Energy=-5.677739D-05
 Lowest energy point so far.  Saving SCF results.
 GradGradGradGradGradGradGradGradGradGradGradGradGradGradGradGradGradGrad

 Leave Link  103 at Wed May 14 19:15:16 2025, MaxMem=   104857600 cpu:               0.0 elap:               0.1
 (Enter /project/home/p200272/packages/gaussian/16c02/l202.exe)
                          Input orientation:                          
 ---------------------------------------------------------------------
 Center     Atomic      Atomic             Coordinates (Angstroms)
 Number     Number       Type             X           Y           Z
 ---------------------------------------------------------------------
      1          8           0        0.016193    0.000000    0.012651
      2          1           0        0.006291   -0.000000    0.975259
      3          1           0        0.947812    0.000000   -0.229832
 ---------------------------------------------------------------------
                    Distance matrix (angstroms):
                    1          2          3
     1  O    0.000000
     2  H    0.962659   0.000000
     3  H    0.962659   1.529282   0.000000
 Stoichiometry    H2O
 Framework group  C2V[C2(O),SGV(H2)]
 Deg. of freedom     2
 Full point group                 C2V     NOp   4
 RotChk:  IX=0 Diff= 9.72D-16
 Largest Abelian subgroup         C2V     NOp   4
 Largest concise Abelian subgroup C2      NOp   2
                         Standard orientation:                         
 ---------------------------------------------------------------------
 Center     Atomic      Atomic             Coordinates (Angstroms)
 Number     Number       Type             X           Y           Z
 ---------------------------------------------------------------------
      1          8           0       -0.000000   -0.000000    0.116968
      2          1           0       -0.000000    0.764641   -0.467871
      3          1           0       -0.000000   -0.764641   -0.467871
 ---------------------------------------------------------------------
 Rotational constants (GHZ):         825.4215877         428.8316120         282.2132486
 Leave Link  202 at Wed May 14 19:15:16 2025, MaxMem=   104857600 cpu:               0.0 elap:               0.0
 (Enter /project/home/p200272/packages/gaussian/16c02/l301.exe)
 Standard basis: def2TZVP (5D, 7F)
 Ernie: Thresh=  0.10000D-02 Tol=  0.10000D-05 Strict=F.
 There are    22 symmetry adapted cartesian basis functions of A1  symmetry.
 There are     4 symmetry adapted cartesian basis functions of A2  symmetry.
 There are     9 symmetry adapted cartesian basis functions of B1  symmetry.
 There are    13 symmetry adapted cartesian basis functions of B2  symmetry.
 There are    19 symmetry adapted basis functions of A1  symmetry.
 There are     4 symmetry adapted basis functions of A2  symmetry.
 There are     8 symmetry adapted basis functions of B1  symmetry.
 There are    12 symmetry adapted basis functions of B2  symmetry.
    43 basis functions,    67 primitive gaussians,    48 cartesian basis functions
     5 alpha electrons        5 beta electrons
       nuclear repulsion energy         9.1412912662 Hartrees.
 IExCor=  402 DFT=T Ex+Corr=B3LYP ExCW=0 ScaHFX=  0.200000
 ScaDFX=  0.800000  0.720000  1.000000  0.810000 ScalE2=  1.000000  1.000000
 IRadAn=      5 IRanWt=     -1 IRanGd=            0 ICorTp=0 IEmpDi=141
 NAtoms=    3 NActive=    3 NUniq=    2 SFac= 2.25D+00 NAtFMM=   60 NAOKFM=F Big=F
 Integral buffers will be    131072 words long.
 Raffenetti 2 integral format.
 Two-electron integral symmetry is turned on.
 R6Disp:  Grimme-D3(BJ) Dispersion energy=       -0.0005738326 Hartrees.
 Nuclear repulsion after empirical dispersion term =        9.1407174336 Hartrees.
 Leave Link  301 at Wed May 14 19:15:16 2025, MaxMem=   104857600 cpu:               0.0 elap:               0.0
 (Enter /project/home/p200272/packages/gaussian/16c02/l302.exe)
 NPDir=0 NMtPBC=     1 NCelOv=     1 NCel=       1 NClECP=     1 NCelD=      1
         NCelK=      1 NCelE2=     1 NClLst=     1 CellRange=     0.0.
 One-electron integrals computed using PRISM.
 One-electron integral symmetry used in STVInt
   4 Symmetry operations used in ECPInt.
 ECPInt:  NShTT=     190 NPrTT=     556 LenC2=     191 LenP2D=     543.
 LDataN:  DoStor=T MaxTD1= 6 Len=  172
 NBasis=    43 RedAO= T EigKep=  8.50D-03  NBF=    19     4     8    12
 NBsUse=    43 1.00D-06 EigRej= -1.00D+00 NBFU=    19     4     8    12
 Precomputing XC quadrature grid using
 IXCGrd= 4 IRadAn=           5 IRanWt=          -1 IRanGd=           0 AccXCQ= 0.00D+00.
 Generated NRdTot=       0 NPtTot=           0 NUsed=           0 NTot=          32
 NSgBfM=    48    48    48    48    48 MxSgAt=     3 MxSgA2=     3.
 Leave Link  302 at Wed May 14 19:15:16 2025, MaxMem=   104857600 cpu:               0.1 elap:               0.1
 (Enter /project/home/p200272/packages/gaussian/16c02/l303.exe)
 DipDrv:  MaxL=1.
 Leave Link  303 at Wed May 14 19:15:16 2025, MaxMem=   104857600 cpu:               0.0 elap:               0.0
 (Enter /project/home/p200272/packages/gaussian/16c02/l401.exe)
 Initial guess from the checkpoint file:  "/mnt/tier2/users/u101443/CONTO_ERNEST/prova_opt/Gau-23930.chk"
 B after Tr=    -0.000000   -0.000000   -0.000000
         Rot=    1.000000   -0.000000   -0.000000   -0.000000 Ang=   0.00 deg.
 Guess basis will be translated and rotated to current coordinates.
 JPrj=2 DoOrth=T DoCkMO=T.
 Initial guess orbital symmetries:
       Occupied  (A1) (A1) (B2) (A1) (B1)
       Virtual   (A1) (B2) (B2) (A1) (B1) (A1) (B2) (A1) (A1) (A2)
                 (B1) (B2) (A1) (B2) (A1) (B1) (A2) (B2) (A1) (B2)
                 (A1) (B1) (A1) (A1) (B2) (B1) (A1) (B1) (A2) (B2)
                 (B2) (A1) (B1) (A2) (A1) (A1) (B2) (A1)
 The electronic state of the initial guess is 1-A1.
 Leave Link  401 at Wed May 14 19:15:16 2025, MaxMem=   104857600 cpu:               0.0 elap:               0.1
 (Enter /project/home/p200272/packages/gaussian/16c02/l502.exe)
 Keep R1 ints in memory in symmetry-blocked form, NReq=2406549.
 FoFCou: FMM=F IPFlag=           0 FMFlag=           0 FMFlg1=           0
         NFxFlg=           0 DoJE=F BraDBF=F KetDBF=F FulRan=T
         wScrn=  0.000000 ICntrl=       600 IOpCl=  0 I1Cent=           0 NGrid=           0
         NMat0=    1 NMatS0=    946 NMatT0=    0 NMatD0=    1 NMtDS0=    0 NMtDT0=    0
 Petite list used in FoFCou.
 Closed shell SCF:
 Using DIIS extrapolation, IDIIS=  1040.
 NGot=   104857600 LenX=   104730128 LenY=   104727383
 Requested convergence on RMS density matrix=1.00D-08 within 128 cycles.
 Requested convergence on MAX density matrix=1.00D-06.
 Requested convergence on             energy=1.00D-06.
 No special actions if energy rises.

 Cycle   1  Pass 1  IDiag  1:
 E= -76.4635397234850    
 DIIS: error= 9.32D-04 at cycle   1 NSaved=   1.
 NSaved= 1 IEnMin= 1 EnMin= -76.4635397234850     IErMin= 1 ErrMin= 9.32D-04
 ErrMax= 9.32D-04  0.00D+00 EMaxC= 1.00D-01 BMatC= 3.00D-05 BMatP= 3.00D-05
 IDIUse=3 WtCom= 9.91D-01 WtEn= 9.32D-03
 Coeff-Com:  0.100D+01
 Coeff-En:   0.100D+01
 Coeff:      0.100D+01
 Gap=     0.331 Goal=   None    Shift=    0.000
 RMSDP=1.70D-04 MaxDP=1.71D-03              OVMax= 2.89D-03

 Cycle   2  Pass 1  IDiag  1:
 E= -76.4635674327730     Delta-E=       -0.000027709288 Rises=F Damp=F
 DIIS: error= 3.62D-04 at cycle   2 NSaved=   2.
 NSaved= 2 IEnMin= 2 EnMin= -76.4635674327730     IErMin= 2 ErrMin= 3.62D-04
 ErrMax= 3.62D-04  0.00D+00 EMaxC= 1.00D-01 BMatC= 2.74D-06 BMatP= 3.00D-05
 IDIUse=3 WtCom= 9.96D-01 WtEn= 3.62D-03
 Coeff-Com:  0.835D-01 0.916D+00
 Coeff-En:   0.000D+00 0.100D+01
 Coeff:      0.832D-01 0.917D+00
 Gap=     0.330 Goal=   None    Shift=    0.000
 RMSDP=4.01D-05 MaxDP=5.61D-04 DE=-2.77D-05 OVMax= 8.16D-04

 Cycle   3  Pass 1  IDiag  1:
 E= -76.4635661271528     Delta-E=        0.000001305620 Rises=F Damp=F
 DIIS: error= 4.54D-04 at cycle   3 NSaved=   3.
 NSaved= 3 IEnMin= 2 EnMin= -76.4635674327730     IErMin= 2 ErrMin= 3.62D-04
 ErrMax= 4.54D-04  0.00D+00 EMaxC= 1.00D-01 BMatC= 4.94D-06 BMatP= 2.74D-06
 IDIUse=3 WtCom= 3.20D-01 WtEn= 6.80D-01
 Coeff-Com: -0.278D-01 0.586D+00 0.441D+00
 Coeff-En:   0.000D+00 0.611D+00 0.389D+00
 Coeff:     -0.887D-02 0.603D+00 0.406D+00
 Gap=     0.330 Goal=   None    Shift=    0.000
 RMSDP=2.20D-05 MaxDP=2.82D-04 DE= 1.31D-06 OVMax= 4.63D-04

 Cycle   4  Pass 1  IDiag  1:
 E= -76.4635693187638     Delta-E=       -0.000003191611 Rises=F Damp=F
 DIIS: error= 2.83D-05 at cycle   4 NSaved=   4.
 NSaved= 4 IEnMin= 4 EnMin= -76.4635693187638     IErMin= 4 ErrMin= 2.83D-05
 ErrMax= 2.83D-05  0.00D+00 EMaxC= 1.00D-01 BMatC= 2.10D-08 BMatP= 2.74D-06
 IDIUse=1 WtCom= 1.00D+00 WtEn= 0.00D+00
 Coeff-Com: -0.986D-04-0.297D-01-0.945D-01 0.112D+01
 Coeff:     -0.986D-04-0.297D-01-0.945D-01 0.112D+01
 Gap=     0.330 Goal=   None    Shift=    0.000
 RMSDP=2.06D-06 MaxDP=2.48D-05 DE=-3.19D-06 OVMax= 4.66D-05

 Cycle   5  Pass 1  IDiag  1:
 E= -76.4635693332439     Delta-E=       -0.000000014480 Rises=F Damp=F
 DIIS: error= 9.70D-07 at cycle   5 NSaved=   5.
 NSaved= 5 IEnMin= 5 EnMin= -76.4635693332439     IErMin= 5 ErrMin= 9.70D-07
 ErrMax= 9.70D-07  0.00D+00 EMaxC= 1.00D-01 BMatC= 2.26D-11 BMatP= 2.10D-08
 IDIUse=1 WtCom= 1.00D+00 WtEn= 0.00D+00
 Coeff-Com:  0.145D-03-0.564D-02-0.841D-02 0.930D-01 0.921D+00
 Coeff:      0.145D-03-0.564D-02-0.841D-02 0.930D-01 0.921D+00
 Gap=     0.330 Goal=   None    Shift=    0.000
 RMSDP=6.21D-08 MaxDP=7.00D-07 DE=-1.45D-08 OVMax= 1.44D-06

 Cycle   6  Pass 1  IDiag  1:
 E= -76.4635693332613     Delta-E=       -0.000000000017 Rises=F Damp=F
 DIIS: error= 9.93D-08 at cycle   6 NSaved=   6.
 NSaved= 6 IEnMin= 6 EnMin= -76.4635693332613     IErMin= 6 ErrMin= 9.93D-08
 ErrMax= 9.93D-08  0.00D+00 EMaxC= 1.00D-01 BMatC= 3.26D-13 BMatP= 2.26D-11
 IDIUse=1 WtCom= 1.00D+00 WtEn= 0.00D+00
 Coeff-Com:  0.404D-04-0.888D-03 0.245D-03-0.717D-02 0.184D+00 0.824D+00
 Coeff:      0.404D-04-0.888D-03 0.245D-03-0.717D-02 0.184D+00 0.824D+00
 Gap=     0.330 Goal=   None    Shift=    0.000
 RMSDP=9.52D-09 MaxDP=9.56D-08 DE=-1.74D-11 OVMax= 2.00D-07

 SCF Done:  E(RB3LYP) =  -76.4635693333     A.U. after    6 cycles
            NFock=  6  Conv=0.95D-08     -V/T= 2.0039
 KE= 7.616569135680D+01 PE=-1.991813221859D+02 EE= 3.741134406225D+01
 Leave Link  502 at Wed May 14 19:15:17 2025, MaxMem=   104857600 cpu:               0.4 elap:               0.5
 (Enter /project/home/p200272/packages/gaussian/16c02/l701.exe)
 ... and contract with generalized density number  0.
 Compute integral first derivatives.
 R6Disp: Adding Grimme-D3(BJ) dispersion energy 1st derivatives to the gradient.
   4 Symmetry operations used in ECPInt.
 ECPInt:  NShTT=     190 NPrTT=     556 LenC2=     191 LenP2D=     543.
 LDataN:  DoStor=T MaxTD1= 7 Len=  274
 Leave Link  701 at Wed May 14 19:15:17 2025, MaxMem=   104857600 cpu:               0.1 elap:               0.1
 (Enter /project/home/p200272/packages/gaussian/16c02/l702.exe)
 L702 exits ... SP integral derivatives will be done elsewhere.
 Leave Link  702 at Wed May 14 19:15:17 2025, MaxMem=   104857600 cpu:               0.0 elap:               0.0
 (Enter /project/home/p200272/packages/gaussian/16c02/l703.exe)
 Integral derivatives from FoFJK, PRISM(SPDF).
 Compute integral first derivatives, UseDBF=F ICtDFT=           0.
 Calling FoFJK, ICntrl=      2127 FMM=F ISym2X=1 I1Cent= 0 IOpClX= 0 NMat=1 NMatS=1 NMatT=0.
 FoFJK:  IHMeth= 1 ICntrl=    2127 DoSepK=F KAlg= 0 I1Cent=           0 FoldK=F
 IRaf=         0 NMat=       1 IRICut=       1 DoRegI=T DoRafI=F ISym2E= 1 IDoP0=0 IntGTp=1.
 FoFCou: FMM=F IPFlag=           0 FMFlag=      100000 FMFlg1=         800
         NFxFlg=           0 DoJE=F BraDBF=F KetDBF=F FulRan=T
         wScrn=  0.000000 ICntrl=      2127 IOpCl=  0 I1Cent=           0 NGrid=           0
         NMat0=    1 NMatS0=      1 NMatT0=    0 NMatD0=    1 NMtDS0=    0 NMtDT0=    0
 Petite list used in FoFCou.
 Leave Link  703 at Wed May 14 19:15:18 2025, MaxMem=   104857600 cpu:               0.3 elap:               0.3
 (Enter /project/home/p200272/packages/gaussian/16c02/l716.exe)
 Dipole        =-5.39413310D-17 2.22044605D-16-8.12257551D-01
 ***** Axes restored to original set *****
 -------------------------------------------------------------------
 Center     Atomic                   Forces (Hartrees/Bohr)
 Number     Number              X              Y              Z
 -------------------------------------------------------------------
      1        8           0.000036723    0.000000000    0.000028691
      2        1          -0.000100114   -0.000000000    0.000090293
      3        1           0.000063391   -0.000000000   -0.000118984
 -------------------------------------------------------------------
 Cartesian Forces:  Max     0.000118984 RMS     0.000065424
 Leave Link  716 at Wed May 14 19:15:18 2025, MaxMem=   104857600 cpu:               0.0 elap:               0.0
 (Enter /project/home/p200272/packages/gaussian/16c02/l103.exe)

 GradGradGradGradGradGradGradGradGradGradGradGradGradGradGradGradGradGrad
 Berny optimization.
 Using GEDIIS/GDIIS optimizer.
 FormGI is forming the generalized inverse of G from B-inverse, IUseBI=4.
 Internal  Forces:  Max     0.000180424 RMS     0.000128102
 Search for a local minimum.
 Step number   3 out of a maximum of   20
 All quantities printed in internal units (Hartrees-Bohrs-Radians)
 RMS Force = .12810D-03 SwitMx=.10000D-02 MixMth= 2
 Mixed Optimization -- En-DIIS/RFO-DIIS
 Update second derivatives using D2CorX and points    1    2    3
 DE= -5.80D-05 DEPred=-5.68D-05 R= 1.02D+00
 TightC=F SS=  1.41D+00  RLast= 2.62D-02 DXNew= 5.0454D-01 7.8697D-02
 Trust test= 1.02D+00 RLast= 2.62D-02 DXMaxT set to 3.00D-01
 The second derivative matrix:
                          R1        R2        A1
           R1           0.47580
           R2          -0.00108   0.47580
           A1           0.02359   0.02359   0.15598
 ITU=  1  1  0
 Use linear search instead of GDIIS.
     Eigenvalues ---    0.15253   0.47688   0.47817
 RFO step:  Lambda=-9.23380665D-08 EMin= 1.52528300D-01
 Quartic linear search produced a step of  0.03544.
 Iteration  1 RMS(Cart)=  0.00068735 RMS(Int)=  0.00000024
 Iteration  2 RMS(Cart)=  0.00000019 RMS(Int)=  0.00000000
 ITry= 1 IFail=0 DXMaxC= 7.24D-04 DCOld= 1.00D+10 DXMaxT= 3.00D-01 DXLimC= 3.00D+00 Rises=F
 ClnCor:  largest displacement from symmetrization is 1.63D-15 for atom     3.
 Variable       Old X    -DE/DX   Delta X   Delta X   Delta X     New X
                                 (Linear)    (Quad)   (Total)
    R1        1.81916   0.00009  -0.00015   0.00029   0.00014   1.81930
    R2        1.81916   0.00009  -0.00015   0.00029   0.00014   1.81930
    A1        1.83571   0.00018   0.00090   0.00022   0.00112   1.83684
         Item               Value     Threshold  Converged?
 Maximum Force            0.000180     0.000450     YES
 RMS     Force            0.000128     0.000300     YES
 Maximum Displacement     0.000724     0.001800     YES
 RMS     Displacement     0.000687     0.001200     YES
 Predicted change in Energy=-1.131127D-07
 Optimization completed.
    -- Stationary point found.
                           ----------------------------
                           !   Optimized Parameters   !
                           ! (Angstroms and Degrees)  !
 --------------------------                            --------------------------
 ! Name  Definition              Value          Derivative Info.                !
 --------------------------------------------------------------------------------
 ! R1    R(1,2)                  0.9627         -DE/DX =    0.0001              !
 ! R2    R(1,3)                  0.9627         -DE/DX =    0.0001              !
 ! A1    A(2,1,3)              105.1786         -DE/DX =    0.0002              !
 --------------------------------------------------------------------------------
 Lowest energy point so far.  Saving SCF results.
 Largest change from initial coordinates is atom    3       0.034 Angstoms.
 GradGradGradGradGradGradGradGradGradGradGradGradGradGradGradGradGradGrad

 Leave Link  103 at Wed May 14 19:15:18 2025, MaxMem=   104857600 cpu:               0.0 elap:               0.2
 (Enter /project/home/p200272/packages/gaussian/16c02/l202.exe)
                          Input orientation:                          
 ---------------------------------------------------------------------
 Center     Atomic      Atomic             Coordinates (Angstroms)
 Number     Number       Type             X           Y           Z
 ---------------------------------------------------------------------
      1          8           0        0.016193    0.000000    0.012651
      2          1           0        0.006291   -0.000000    0.975259
      3          1           0        0.947812    0.000000   -0.229832
 ---------------------------------------------------------------------
                    Distance matrix (angstroms):
                    1          2          3
     1  O    0.000000
     2  H    0.962659   0.000000
     3  H    0.962659   1.529282   0.000000
 Stoichiometry    H2O
 Framework group  C2V[C2(O),SGV(H2)]
 Deg. of freedom     2
 Full point group                 C2V     NOp   4
 RotChk:  IX=0 Diff= 5.63D-16
 Largest Abelian subgroup         C2V     NOp   4
 Largest concise Abelian subgroup C2      NOp   2
                         Standard orientation:                         
 ---------------------------------------------------------------------
 Center     Atomic      Atomic             Coordinates (Angstroms)
 Number     Number       Type             X           Y           Z
 ---------------------------------------------------------------------
      1          8           0       -0.000000    0.000000    0.116968
      2          1           0        0.000000    0.764641   -0.467871
      3          1           0       -0.000000   -0.764641   -0.467871
 ---------------------------------------------------------------------
 Rotational constants (GHZ):         825.4215877         428.8316120         282.2132486
 Leave Link  202 at Wed May 14 19:15:18 2025, MaxMem=   104857600 cpu:               0.0 elap:               0.0
 (Enter /project/home/p200272/packages/gaussian/16c02/l601.exe)
 Copying SCF densities to generalized density rwf, IOpCl= 0 IROHF=0.

 **********************************************************************

            Population analysis using the SCF Density.

 **********************************************************************

 Orbital symmetries:
       Occupied  (A1) (A1) (B2) (A1) (B1)
       Virtual   (A1) (B2) (B2) (A1) (B1) (A1) (B2) (A1) (A1) (A2)
                 (B1) (B2) (A1) (B2) (A1) (B1) (A2) (B2) (A1) (B2)
                 (A1) (B1) (A1) (A1) (B2) (B1) (A1) (B1) (A2) (B2)
                 (B2) (A1) (B1) (A2) (A1) (A1) (B2) (A1)
 The electronic state is 1-A1.
 Alpha  occ. eigenvalues --  -19.12749  -1.01421  -0.53534  -0.39072  -0.31643
 Alpha virt. eigenvalues --    0.01371   0.08912   0.35653   0.40442   0.42455
 Alpha virt. eigenvalues --    0.43421   0.56801   0.59455   1.16516   1.18510
 Alpha virt. eigenvalues --    1.29433   1.51959   1.62794   1.74428   1.97393
 Alpha virt. eigenvalues --    2.04876   2.09968   2.27599   2.37761   2.56841
 Alpha virt. eigenvalues --    2.59811   2.60298   2.76796   3.62442   3.91961
 Alpha virt. eigenvalues --    5.09541   5.19348   5.37274   5.39487   5.46271
 Alpha virt. eigenvalues --    6.01342   6.20247   6.29563   6.36117   6.40766
 Alpha virt. eigenvalues --    6.89753   6.97689  43.22060
          Condensed to atoms (all electrons):
               1          2          3
     1  O    8.029603   0.301032   0.301032
     2  H    0.301032   0.409285  -0.026151
     3  H    0.301032  -0.026151   0.409285
 Mulliken charges:
               1
     1  O   -0.631667
     2  H    0.315833
     3  H    0.315833
 Sum of Mulliken charges =  -0.00000
 Mulliken charges with hydrogens summed into heavy atoms:
               1
     1  O   -0.000000
 Electronic spatial extent (au):  <R**2>=             19.7125
 Charge=             -0.0000 electrons
 Dipole moment (field-independent basis, Debye):
    X=             -0.0000    Y=             -0.0000    Z=             -2.0646  Tot=              2.0646
 Quadrupole moment (field-independent basis, Debye-Ang):
   XX=             -7.5854   YY=             -4.3494   ZZ=             -6.3339
   XY=              0.0000   XZ=              0.0000   YZ=              0.0000
 Traceless Quadrupole moment (field-independent basis, Debye-Ang):
   XX=             -1.4958   YY=              1.7402   ZZ=             -0.2443
   XY=              0.0000   XZ=              0.0000   YZ=              0.0000
 Octapole moment (field-independent basis, Debye-Ang**2):
  XXX=              0.0000  YYY=             -0.0000  ZZZ=             -1.3432  XYY=             -0.0000
  XXY=              0.0000  XXZ=             -0.3663  XZZ=              0.0000  YZZ=              0.0000
  YYZ=             -1.3283  XYZ=             -0.0000
 Hexadecapole moment (field-independent basis, Debye-Ang**3):
 XXXX=             -6.5655 YYYY=             -6.3529 ZZZZ=             -7.2858 XXXY=             -0.0000
 XXXZ=             -0.0000 YYYX=             -0.0000 YYYZ=              0.0000 ZZZX=             -0.0000
 ZZZY=              0.0000 XXYY=             -2.4414 XXZZ=             -2.3607 YYZZ=             -1.9501
 XXYZ=             -0.0000 YYXZ=              0.0000 ZZXY=              0.0000
 N-N= 9.140717433611D+00 E-N=-1.991813203232D+02  KE= 7.616569135680D+01
 Symmetry A1   KE= 6.795107915166D+01
 Symmetry A2   KE= 5.438463466172D-33
 Symmetry B1   KE= 4.561813062737D+00
 Symmetry B2   KE= 3.652799142408D+00
 No NMR shielding tensors so no spin-rotation constants.
 Leave Link  601 at Wed May 14 19:15:19 2025, MaxMem=   104857600 cpu:               0.1 elap:               0.5
 (Enter /project/home/p200272/packages/gaussian/16c02/l9999.exe)
 B after Tr=    -0.021420   -0.000000   -0.016735
         Rot=    1.000000    0.000000   -0.000000    0.000000 Ang=   0.00 deg.
 Final structure in terms of initial Z-matrix:
 O
 H,1,R1
 H,1,R1,2,A1
      Variables:
 R1=0.96265875
 A1=105.17862275
 Unable to Open any file for archive entry.
 1\1\GINC-MEL0317\FOpt\RB3LYP\def2TZVP\H2O1\ROOT\14-May-2025\0\\#p b3ly
 p/def2TZVP EmpiricalDispersion=GD3BJ opt\\dcn\\0,1\O,0.0161926521,0.,0
 .0126510863\H,0.0062914735,0.,0.9752589132\H,0.9478116007,0.,-0.229831
 8951\\Version=ES64L-G16RevC.02\State=1-A1\HF=-76.4635693\RMSD=9.521e-0
 9\RMSF=6.542e-05\Dipole=0.6400677,0.,0.5000757\Quadrupole=0.3775919,-1
 .1121205,0.7345286,0.,-0.7157974,0.\PG=C02V [C2(O1),SGV(H2)]\\@
 The archive entry for this job was punched.


 YOU CANNOT THROW TO THE GROUND THE LETTERS OF
 THE GREEK ALPHABET AND PICK UP THE ILIAD.
        - RUFUS CHOATE, 1799-1859
 Job cpu time:       0 days  0 hours  0 minutes  4.2 seconds.
 Elapsed time:       0 days  0 hours  0 minutes  7.5 seconds.
 File lengths (MBytes):  RWF=      6 Int=      0 D2E=      0 Chk=      1 Scr=      1
 Normal termination of Gaussian 16 at Wed May 14 19:15:21 2025.
